! TOUCHSTONE file generated by CST MICROWAVE STUDIO
! Date and time: Fri Jun  7 00:43:41 2024
! Project name: Final_26GHz_linear.cst
! Parameters = {Connector_spacing=15.33; Coplanar_gap=0.425; Distance_inner=4.78238; Distance_outer=14.3471; L=2.6; L_pad=5; Length_strip_inner=24.3248; Length_strip_outer=27.8328; Pad_via_diameter=2.1; Pad_via_x_centre=3.75; Pad_via_z_centre=2.8; Patch_spacing=5.76524; Via_diameter=0.4; Via_spacing=0.8; W=2.6; W_PCB=70; W_line_50=1.15; W_line_small=0.1; W_pad=6; c=2.99792e+08; er=3.66; extra_distance_z=30; f=2.6e+10; k=3.99; lambda_0=11.5305; t_copper=0.012; t_substrate=0.508; theta_inner=11.3385; theta_outer=31.0293; x_triangle_inner=0.563778; x_triangle_outer=0.49272; z_Line=23.85; z_triangle_inner=0.113048; z_triangle_outer=0.296399}
! Header version: 2024
! Port assignment regex: !\s*Touchstone port\s*([0-9]+)\s*=\s*(CST MWS port|CST DES external port|CST DES block port)\s*(.+)\s* \(\"(.*)\"\)(\s*mode\s*([0-9]+))?.*
! Touchstone port assignment:
! Touchstone port 1 = CST MWS port 1 ("")
! Touchstone port 2 = CST MWS port 2 ("")
! Touchstone port 3 = CST MWS port 3 ("")
! Touchstone port 4 = CST MWS port 4 ("")
# GHz S MA R 50
20                      0.833934        101.6715       0.01317683         140.956      0.002928051        176.4991     0.0002452588       -6.847219
                      0.01342057        142.7868        0.7992215         41.9539       0.01924335       -81.43488      0.003068905        119.6956
                     0.003067402        119.7074       0.01924365        -81.4349        0.7992104        41.95388       0.01342079        142.7936
                    0.0002452528       -6.864709      0.002927454         176.512       0.01317879        140.9556        0.8341423         101.687
20.025                 0.8315782        98.10235       0.01302125        137.2484      0.003185441        170.4792      0.000397737       -19.80145
                      0.01360116        139.2648        0.7960271        38.75821       0.01906427       -86.19788      0.003078234        115.2495
                     0.003076671        115.2635       0.01906456       -86.19796        0.7960156        38.75823       0.01360133        139.2716
                    0.0003977352       -19.81322      0.003185053        170.4914       0.01302281        137.2468        0.8317861        98.11781
20.05                  0.8290627        94.53836       0.01286009        133.6671      0.003428754        164.3844     0.0005497886       -30.33025
                       0.0137796        135.6508        0.7927961        35.54675       0.01884803       -90.89584      0.003074213        110.9194
                     0.003072608        110.9359       0.01884831       -90.89594        0.7927844        35.54683       0.01377973        135.6575
                    0.0005497877       -30.33941      0.003428575        164.3957       0.01286122        133.6646        0.8292703        94.55368
20.075                  0.826393         90.9776       0.01269682        130.2114      0.003655712        158.2523     0.0007005957        -40.0239
                      0.01395145         131.944         0.789536        32.31904        0.0185979       -95.50839      0.003057017        106.7316
                     0.003055395        106.7509       0.01859817       -95.50853        0.7895239         32.3192       0.01395154        131.9506
                    0.0007005942       -40.03155      0.003655741        158.2626       0.01269751        130.2082        0.8266003         90.9928
20.1                    0.823574        87.41825       0.01253483        126.8781      0.003864224        152.1117     0.0008498688       -49.33019
                      0.01411223        128.1462         0.786256        29.07465       0.01831789       -100.0149       0.00302713        102.7158
                     0.003025515        102.7382       0.01831816        -100.015        0.7862436        29.07491       0.01411227        128.1527
                    0.0008498655       -49.33685      0.003864458        152.1208       0.01253508        126.8746        0.8237809        87.43336
20.125                 0.8206107        83.85858       0.01237734        123.6618      0.004052399        145.9852     0.0009974653       -58.41939
                      0.01425755        124.2612        0.7829671         25.8132       0.01801281       -104.3944      0.002985366        98.90461
                     0.002983785        98.93037       0.01801306       -104.3946        0.7829544        25.81358       0.01425755        124.2677
                    0.0009974592       -58.42533      0.004052832        145.9931       0.01237713        123.6581        0.8208172        83.87362
20.15                  0.8175086          80.297       0.01222725        120.5543      0.004218557        139.8923        0.0011433       -67.36696
                       0.0143832         120.295        0.7796824        22.53431       0.01768824       -108.6262      0.002932901        95.33424
                     0.002931386        95.36361       0.01768848       -108.6264        0.7796693        22.53484       0.01438316        120.3014
                      0.00114329       -67.37237      0.004219183        139.8989        0.0122266        120.5508        0.8177148        80.31192
20.175                 0.8142738        76.73188       0.01208709        117.5449      0.004361249        133.8501      0.001287311       -76.20882
                      0.01448523        116.2548         0.776416        19.23763       0.01735058       -112.6896      0.002871316        92.04438
                     0.002869899        92.07756       0.01735081       -112.6899        0.7764027        19.23831       0.01448515        116.2611
                     0.001287297        -76.2138       0.00436206        133.8552       0.01208602        117.5419        0.8144795        76.74674
20.2                   0.8109126        73.16179        0.0119589        114.6205      0.004479281        127.8748      0.001429439       -84.96201
                      0.01456002        112.1491        0.7731839        15.92279        0.0170071       -116.5653      0.002802627        89.07762
                     0.002801344        89.11476       0.01700732       -116.5656        0.7731704        15.92365        0.0145599        112.1553
                      0.00142942       -84.96664      0.004480263        127.8785       0.01195744        114.6184        0.8111178        73.17659
20.225                 0.8074328        69.58535       0.01184416         111.766       0.00457173        121.9827      0.001569614       -93.63362
                      0.01460433        107.9876        0.7700032         12.5894       0.01666584       -120.2358      0.002729323        86.47809
                      0.00272821        86.51919       0.01666604       -120.2362        0.7699896        12.59045       0.01460417        107.9937
                     0.001569589       -93.63796      0.004572871        121.9847       0.01184234        111.7649        0.8076374         69.6001
20.25                  0.8038426        66.00122       0.01174373        108.9647       0.00463797        116.1905      0.001707747       -102.2254
                      0.01461537        103.7809        0.7668918        9.237048       0.01633562       -123.6871      0.002654389        84.28861
                     0.002653484        84.33352        0.0163358       -123.6875        0.7668782        9.238305       0.01461516        103.7869
                     0.001707716       -102.2295      0.004639255        116.1907       0.01174159         108.965        0.8040467        66.01596
20.275                  0.800152        62.40821       0.01165779        106.1991      0.004677702        110.5163      0.001843719       -110.7359
                      0.01459081        99.54029        0.7638686        5.865287        0.0160259       -126.9096      0.002581311        82.54615
                     0.002580649        82.59443       0.01602607         -126.91        0.7638551        5.866771       0.01459055        99.54611
                     0.001843681       -110.7398      0.004679112        110.5147       0.01165539        106.2009        0.8003553        62.42292
20.3                   0.7963718        58.80514       0.01158589        103.4517      0.004690974        104.9803      0.001977379       -119.1619
                      0.01452885        95.27795        0.7609527        2.473643       0.01574658       -129.9006      0.002514025        81.27485
                     0.002513639        81.32575       0.01574674       -129.9011        0.7609394        2.475366       0.01452852        95.28363
                     0.001977334       -119.1655      0.004692491        104.9767       0.01158329        103.4553        0.7965744        58.81986
20.325                 0.7925145        55.19092       0.01152695        100.7056      0.004678221        99.60532       0.00210854        -127.499
                      0.01442821        91.00689        0.7581635      -0.9383979       0.01550774       -132.6658      0.002456803        80.47684
                     0.002456719        80.52925       0.01550787       -132.6664        0.7581505      -0.9364186       0.01442782        91.01242
                     0.002108487       -127.5024      0.004679823        99.59958       0.01152422        100.7111        0.7927161        55.20566
20.35                  0.7885937        51.56451       0.01147934        97.94559      0.004640301        94.41761      0.002236982       -135.7425
                       0.0142882        86.74098        0.7555204       -4.371375       0.01531921       -135.2211      0.002414033        80.12245
                     0.002414266         80.1748       0.01531932       -135.2217        0.7555076       -4.369128       0.01428774        86.74635
                      0.00223692       -135.7458      0.004641961        94.40954       0.01147653        97.95302        0.7887943        51.57928
20.375                 0.7846246        47.92488       0.01144096        95.15833      0.004578537        89.44763      0.002362449       -143.8876
                       0.0141087        82.49512         0.753042       -7.825855       0.01519011       -137.5935      0.002389889        80.14218
                     0.002390438        80.19267        0.0151902       -137.5942        0.7530297       -7.823326       0.01410815        82.50035
                     0.002362378       -143.8907      0.004580227        89.43705       0.01143813        95.16769        0.7848241        47.93972
20.4                   0.7806233        44.27111       0.01140933        92.33324      0.004494773        84.73085      0.002484658       -151.9292
                       0.0138902        78.28536        0.7507466       -11.30241       0.01512832       -139.8211      0.002387909        80.42527
                     0.002388758        80.47199        0.0151284       -139.8217        0.7507347       -11.29959       0.01388957        78.29042
                     0.002484578       -151.9322      0.004496464        84.71751       0.01140654        92.34447        0.7808218        44.28602
20.425                 0.7766076        40.60223       0.01138173        89.46258      0.004391444        80.30837      0.002603306       -159.8626
                      0.01363383        74.12909        0.7486514       -14.80163       0.01513995       -141.9513      0.002410583        80.82794
                     0.002411696        80.86916          0.01514        -141.952        0.7486401        -14.7985       0.01363311        74.13402
                     0.002603216       -159.8655      0.004393102         80.2921       0.01137904        89.47558         0.776805        40.61724
20.45                  0.7725961        36.91733       0.01135535        86.54167      0.004271652        76.22757      0.002718077       -167.6833
                      0.01334137        70.04531        0.7467726       -18.32406       0.01522885       -144.0383       0.00245903        81.19159
                     0.002460357        81.22607       0.01522888        -144.039        0.7467617       -18.32063       0.01334054        70.05014
                     0.002717977        -167.686       0.00427324        76.20811       0.01135279        86.55633        0.7727925        36.93245
20.475                 0.7686088        33.21551       0.01132733        83.56895      0.004139258        72.54177      0.002828649       -175.3869
                      0.01301526        66.05489        0.7451246       -21.87025       0.01539634       -146.1389      0.002532898        81.36599
                     0.002534379        81.39311       0.01539636       -146.1396        0.7451144        -21.8665       0.01301432        66.05962
                      0.00282854       -175.3894      0.004140737        72.51895       0.01132496        83.58507         0.768804        33.23077
20.5                   0.7646659        29.49589       0.01129498         80.5457      0.003998989        69.30906      0.002934712        177.0306
                      0.01265865        62.18071        0.7437209       -25.44068       0.01564114       -148.3077      0.002630498        81.22961
                     0.002632068        81.24942       0.01564114       -148.3084        0.7437112        -25.4366       0.01265759         62.1854
                     0.002934593        177.0282      0.004000314        69.28273       0.01129282        80.56309        0.7648598        29.51131
20.525                 0.7607886         25.7576        0.0112558        77.47596      0.003856524        66.58884      0.003035973        169.5729
                      0.01227541        58.44808        0.7425726       -29.03576       0.01595943       -150.5932      0.002749116        80.70093
                     0.002750713        80.71396       0.01595941       -150.5939        0.7425636       -29.03135       0.01227423        58.45278
                     0.003035844        169.5707      0.003857651        66.55902       0.01125387        77.49441        0.7609815        25.77319
20.55                  0.7569983        21.99977       0.01120758        74.36618      0.003718553        64.43521      0.003132171        162.2436
                      0.01187018        54.88475        0.7416896       -32.65582       0.01634522        -153.035        0.0028854        79.73939
                     0.002886967        79.74653       0.01634518       -153.0357        0.7416811       -32.65107       0.01186887        54.88952
                     0.003132033        162.2415      0.003719434        64.40206        0.0112059        74.38548          0.75719        22.01556
20.575                 0.7533167        18.22158       0.01114853        71.22492      0.003592735        62.88582      0.003223088        155.0458
                       0.0114484        51.52095        0.7410793       -36.30108       0.01679075       -155.6615      0.003035715        78.33889
                     0.003037205        78.34117       0.01679069       -155.6622        0.7410715       -36.29599       0.01144695        51.52589
                     0.003222941        155.0438      0.003593326        62.84981       0.01114711        71.24484        0.7535073        18.23758
20.6                   0.7497653         14.4222       0.01107729        68.06259      0.003487473        61.94598       0.00330856        147.9823
                      0.01101633        48.38915        0.7407475       -39.97163         0.017287       -158.4904      0.003196426        76.51799
                     0.003197799        76.51646       0.01728692       -158.4911        0.7407403       -39.96619       0.01101474         48.3944
                     0.003308404        147.9806      0.003487736        61.90796       0.01107613        68.08296        0.7499549        14.43843
20.625                 0.7463654        10.60086       0.01099298        64.89118      0.003411425        61.57015      0.003388486        141.0559
                      0.01058111        45.52331        0.7406977       -43.66744       0.01782415       -161.5294      0.003364077        74.31041
                     0.003365304        74.30605       0.01782407       -161.5301         0.740691       -43.66166       0.01057939        45.52901
                     0.003388323        141.0543      0.003411334        61.53139       0.01099208        64.91175         0.746554        10.61734
20.65                  0.7431376         6.75683       0.01089529        61.72382      0.003372687        61.64736      0.003462843        134.2688
                      0.01015078        42.95737        0.7409315       -47.38829       0.01839201       -164.7777      0.003535498        71.75736
                     0.003536558        71.75102       0.01839191       -164.7783        0.7409253       -47.38215       0.01014892        42.96373
                     0.003462671        134.2673      0.003372235        61.60949       0.01089463        61.74443        0.7433253        6.773569
20.675                  0.740102         2.88944       0.01078444        58.57468      0.003377746        62.00011      0.003531682        127.6227
                     0.009734176        40.72287        0.7414483       -51.13382       0.01898034       -168.2279      0.003707854         68.9022
                     0.003708731        68.89463       0.01898022       -168.2285        0.7414425       -51.12733      0.009732192        40.73013
                     0.003531504        127.6214      0.003376949        61.96488         0.010784        58.59513        0.7402889        2.906449
20.7                   0.7372777       -1.001909       0.01066124        55.45845      0.003430471        62.40445      0.003595144         121.119
                     0.009340922        38.84515        0.7422457       -54.90348       0.01957909       -171.8681      0.003878654        65.78727
                      0.00387934        65.77907       0.01957896       -171.8687        0.7422401       -54.89664      0.009338827        38.85359
                     0.003594962        121.1179       0.00342937        62.37338       0.01066099         55.4786        0.7374637      -0.9846218
20.725                 0.7346824        -4.91772       0.01052708        52.39013      0.003531511        62.62821       0.00365346        114.7584
                     0.008981146        37.33816         0.743319       -58.69655       0.02017866       -175.6831      0.004045749        62.45195
                      0.00404624        62.44361       0.02017852       -175.6837        0.7433137       -58.68934       0.00897896         37.3481
                     0.003653274        114.7575      0.003530167         62.6024         0.010527        52.40984        0.7348678       -4.900149
20.75                  0.7323328       -8.858392       0.01038394         49.3845      0.003678346        62.47294      0.003706947        108.5411
                     0.008665119         36.1981        0.7446621       -62.51211       0.02076993        -179.656      0.004207314        58.93195
                     0.004207612        58.92389       0.02076978       -179.6566        0.7446568       -62.50454      0.008662873        36.20985
                     0.003706758        108.5404      0.003676833        62.45278       0.01038399        49.40364        0.7325175       -8.840531
20.775                 0.7302439       -12.82419       0.01023435         46.4556      0.003865935        61.80176      0.003756009        102.4661
                     0.008402682        35.39691        0.7462663       -66.34906       0.02134439        176.2311      0.004361833        55.25906
                     0.004361942        55.25162       0.02134423        176.2305        0.7462611       -66.34113      0.008400412        35.41076
                     0.003755818        102.4656      0.003864328        61.78711        0.0102345         46.4741         0.730428       -12.80604
20.8                   0.7284292       -16.81524       0.01008137         43.6161      0.004087661        60.54583      0.003801125        96.53171
                     0.008202477        34.87743        0.7481222       -70.20614       0.02189421        171.9961      0.004508073        51.46133
                     0.004508002        51.45476       0.02189404        171.9955        0.7481168       -70.19785      0.008200225        34.89361
                     0.003800935        96.53139      0.004086032        60.53612       0.01008159        43.63391        0.7286128        -16.7968
20.825                 0.7269003       -20.83151       0.00992855        40.87649       0.00433624        58.69353      0.003842847        90.73497
                     0.008071089        34.55269         0.750218        -74.0819       0.02241222        167.6569      0.004645074         47.5632
                     0.004644834        47.55772       0.02241204        167.6563        0.7502124       -74.07327      0.008068904        34.57132
                     0.003842659        90.73482      0.004334651        58.68802      0.009928789        40.89358        0.7270833       -20.81278
20.85                  0.7256672       -24.87279      0.009779834        38.24412      0.004604391        56.27254      0.003881775        85.07154
                      0.00801225        34.31142        0.7525407       -77.97473       0.02289199        163.2305      0.004772125        43.58598
                     0.004771729        43.58176       0.02289179          163.23        0.7525348       -77.96575      0.008010182        34.33245
                     0.003881591        85.07159      0.004602895         56.2704      0.009780058        38.26054        0.7258497       -24.85378
20.875                 0.7247376       -28.93869      0.009639464        35.72221      0.004885243        53.33245      0.003918548        79.53577
                      0.00802632        34.02959        0.7550762       -81.88293       0.02332779        158.7338      0.004888746        39.54809
                     0.004888211        39.54525       0.02332758        158.7333        0.7550698       -81.87359      0.008024412        34.05284
                      0.00391837        79.53599      0.004883884        53.33292      0.009639638        35.73802        0.7249197        -28.9194
20.9                   0.7241177       -33.02861      0.009511856        33.30874      0.005172529        49.93176      0.003953813        74.12036
                       0.0081102        33.58575        0.7578087        -85.8046       0.02371464        154.1826      0.004994674        35.46539
                     0.004994016        35.46403       0.02371442         154.182         0.757802       -85.79491      0.008108491        33.61092
                     0.003953643        74.12075      0.005171339        49.93419      0.009511947        33.32407        0.7242993       -33.00906
20.925                 0.7238112       -37.14176      0.009401431        30.99551      0.005460633        46.12972      0.003988209        68.81651
                     0.008257743        32.87548         0.760722       -89.73778       0.02404831        149.5923      0.005089842        31.35141
                     0.005089082         31.3516       0.02404808        149.5917        0.7607146        -89.7277       0.00825626        32.90216
                     0.003988048        68.81707      0.005459639        46.13352      0.009401413        31.01052        0.7239924       -37.12196
20.95                    0.72382       -41.27713      0.009312418        28.76744      0.005744579        41.98176      0.004022335        63.61382
                     0.008460509         31.8211        0.7637987       -93.68037       0.02432533        144.9775      0.005174363        27.21758
                     0.005173519        27.21935        0.0243251        144.9769        0.7637905       -93.66993      0.008459269        31.84891
                     0.004022185        63.61452      0.005743801        41.98647      0.009312271        28.78236        0.7240008        -41.2571
20.975                 0.7241439       -45.43354       0.00924866        26.60229      0.006019982        37.53761       0.00405672        58.50045
                     0.008708692        30.37496        0.7670204       -97.63026       0.02454302        140.3527      0.005248504        23.07338
                     0.005247599        23.07674       0.02454279        140.3521        0.7670115       -97.61943      0.008707705        30.40352
                     0.004056583        58.50125      0.006019434        37.54285      0.009248367        26.61737        0.7243241       -45.41329
21                     0.7247808       -49.60957      0.009213388        24.47113       0.00628299        32.84071      0.004091802        53.46327
                     0.008991987        28.51711        0.7703687       -101.5852       0.02469949        135.7317      0.005312674        18.92646
                     0.005311727         18.9314       0.02469925        135.7311        0.7703589       -101.5741       0.00899125        28.54608
                     0.004091679        53.46417      0.006282682        32.84618      0.009212948        24.48665        0.7249605       -49.58911
21.025                 0.7257261       -53.80366      0.009209041         22.3394       0.00653023        27.92852      0.004127897        48.48814
                     0.009300283        26.24959        0.7738244       -105.5431       0.02479366        131.1283       0.00536739        14.78276
                     0.005366422        14.78924       0.02479341        131.1277        0.7738137       -105.5316      0.009299791        26.27873
                     0.004127791        48.48911      0.006530168        27.93397      0.009208459        22.35563        0.7259054       -53.78301
21.05                  0.7269739       -58.01401       0.00923711        20.16878       0.00675877        22.83312      0.004165182         43.5603
                     0.009624137        23.58986        0.7773685       -109.5016        0.0248253        126.5562      0.005413259        10.64654
                      0.00541229        10.65452       0.02482504        126.5556        0.7773567       -109.4897      0.009623876        23.61899
                     0.004165092         43.5613      0.006758956        22.83834      0.009236396        20.18599        0.7271524       -57.99322
21.075                 0.7285156       -62.23875      0.009298045        17.91947      0.006966073        17.58193       0.00420367        38.66468
                     0.009955039        20.56473        0.7809813       -113.4586       0.02479501        122.0291      0.005450951         6.52052
                     0.005449999        6.529908       0.02479474        122.0285        0.7809687       -113.4464      0.009954996        20.59371
                     0.004203598         38.6657      0.006966508        17.58676      0.009297224        17.93789        0.7286935       -62.21778
21.1                   0.7303413       -66.47572      0.009391248        15.55275      0.007149979        12.19846      0.004243209         33.7864
                      0.01028554        17.20563        0.7846441       -117.4118       0.02470429        117.5607      0.005481168        2.405853
                     0.005480251        2.416558       0.02470401          117.56        0.7846306       -117.3992        0.0102857        17.23439
                     0.004243154        33.78739      0.007150661        12.20275      0.009390347        15.57257        0.7305185       -66.45464
21.125                 0.7324394       -70.72282      0.009515125        13.03331      0.007308674        6.702919      0.004283468        28.91111
                      0.01060926        13.54532         0.788338       -121.3592       0.02455552        113.1649      0.005504623       -1.697742
                     0.005503757       -1.685839       0.02455523        113.1642        0.7883233       -121.3463        0.0106096        13.57382
                     0.004283432        28.91205      0.007309598        6.706553      0.009514179        13.05464        0.7326157       -70.70164
21.15                   0.734796       -74.97776      0.009667216        10.33106       0.00744068        1.112874       0.00432395        24.02542
                      0.01092085        9.615831        0.7920444       -125.2987         0.024352        108.8559      0.005522008       -5.791924
                     0.005521207       -5.778955       0.02435171        108.8553        0.7920289       -125.2854       0.01092136        9.644055
                     0.004323931        24.02628      0.007441837        1.115743      0.009666264        10.35398        0.7349716       -74.95647
21.175                 0.7373965       -79.23813      0.009844363        7.422358      0.007544831       -4.556291      0.004363988        19.11725
                      0.01121592        5.447204        0.7957459       -129.2283       0.02409798        104.6482      0.005533969       -9.879618
                     0.005533244       -9.865727       0.02409768        104.6476        0.7957293       -129.2147       0.01121658        5.475166
                     0.004363987          19.118      0.007546214       -4.554284       0.00984344        7.446884        0.7375711        -79.2168
21.2                   0.7402243       -83.50158        0.0100429        4.290399      0.007620273       -10.29092      0.004402771          14.176
                      0.01149098        1.067007        0.7994252       -133.1462       0.02379862        100.5563      0.005541085       -13.96487