! TOUCHSTONE file generated by CST MICROWAVE STUDIO
! Date and time: Fri Jun  7 22:58:36 2024
! Project name: Final_26GHz_linear.cst
! Parameters = {tand=0.0037; Connector_spacing=15.33; Coplanar_gap=0.3905; Distance_inner=4.78238; Distance_outer=14.3471; L=2.6; L_pad=5; Length_strip_inner=24.2571; Length_strip_outer=27.7737; Pad_via_diameter=2.1; Pad_via_x_centre=3.75; Pad_via_z_centre=2.8; Patch_spacing=5.76524; Via_diameter=0.4; Via_spacing=0.8; W=2.6; W_PCB=70; W_line_50=1.219; W_line_small=0.1; W_pad=6; c=2.99792e+08; er=3.66; extra_distance_z=30; f=2.6e+10; k=3.99; lambda_0=11.5305; t_copper=0.012; t_substrate=0.508; theta_inner=11.3706; theta_outer=31.1027; x_triangle_inner=0.597537; x_triangle_outer=0.52188; z_Line=23.781; z_triangle_inner=0.120165; z_triangle_outer=0.314852}
! Header version: 2024
! Port assignment regex: !\s*Touchstone port\s*([0-9]+)\s*=\s*(CST MWS port|CST DES external port|CST DES block port)\s*(.+)\s* \(\"(.*)\"\)(\s*mode\s*([0-9]+))?.*
! Touchstone port assignment:
! Touchstone port 1 = CST MWS port 1 ("")
! Touchstone port 2 = CST MWS port 2 ("")
! Touchstone port 3 = CST MWS port 3 ("")
! Touchstone port 4 = CST MWS port 4 ("")
# GHz S MA R 50
20                     0.8279206        97.45123       0.01451024        143.4225      0.001241806        139.9666     0.0001956784       -40.76627
                      0.01327643        137.9022        0.7796071        37.89785       0.01823598       -79.20154      0.002972692        121.1809
                     0.002971606        121.2016       0.01823611       -79.20202         0.779599        37.90031       0.01327556        137.9067
                     0.000195771       -40.76464      0.001240966        139.8663         0.014511        143.4298        0.8279875        97.45305
20.025                 0.8246285        93.91291       0.01458617        138.7439      0.001317974        147.3089     0.0003313271       -40.38675
                      0.01346969        134.4863        0.7762204        34.64345       0.01847227       -83.55449      0.003008364        116.8079
                     0.003007263        116.8304       0.01847239       -83.55497        0.7762124        34.64604        0.0134688        134.4908
                    0.0003314167       -40.38903      0.001316621        147.2321       0.01458696        138.7501        0.8246956        93.91475
20.05                  0.8211806        90.36886       0.01461706        134.0614      0.001467394         152.684     0.0004712267       -45.31659
                      0.01366337        130.9573        0.7729018        31.36222       0.01868427       -87.99116      0.003029322        112.4856
                     0.003028221        112.5099       0.01868437       -87.99164        0.7728939        31.36492       0.01366246        130.9617
                    0.0004713114        -45.3194      0.001465736         152.633       0.01461786        134.0666        0.8212477        90.37071
20.075                 0.8175852        86.81707       0.01460214        129.3895      0.001672102        155.5889     0.0006129951       -51.98765
                      0.01385219        127.3131        0.7696521        28.05306       0.01886845       -92.49218      0.003035169        108.2476
                     0.003034086         108.274       0.01886855       -92.49267        0.7696443        28.05588       0.01385126        127.3174
                    0.0006130741       -51.99044      0.001670325        155.5586       0.01460292        129.3937        0.8176524        86.81894
20.1                   0.8138509         83.2556       0.01454124        124.7426      0.001914135        156.2886     0.0007559913       -59.43414
                       0.0140308        123.5551        0.7664728        24.71513       0.01902211       -97.03837      0.003025865          104.13
                      0.00302482        104.1586        0.0190222       -97.03889        0.7664648        24.71807       0.01402985        123.5593
                    0.0007560639       -59.43682      0.001912366        156.2726       0.01454196        124.7457        0.8139179        83.25748
20.125                 0.8099859        79.68261        0.0144348        120.1355       0.00217931        155.2808     0.0008999665       -67.28624
                      0.01419389        119.6873        0.7633658        21.34775       0.01914331       -101.6107      0.003001764        100.1723
                     0.003000778        100.2032        0.0191434       -101.6112        0.7633577         21.3508       0.01419292        119.6914
                    0.0009000324        -67.2888      0.002177628        155.2739       0.01443544        120.1375        0.8100527        79.68451
20.15                  0.8059993        76.09631       0.01428391        115.5835      0.002457224        153.0231      0.001044792       -75.36877
                      0.01433634        115.7163        0.7603346        17.95046       0.01923091       -106.1905      0.002963657        96.41758
                     0.002962752        96.45079         0.019231        -106.191        0.7603262        17.95364       0.01433535        115.7203
                      0.00104485       -75.37124      0.002455679        153.0219       0.01428444        115.5845        0.8060658        76.09826
20.175                 0.8018999        72.49504       0.01409029        111.1025      0.002740231        149.8665      0.001190372       -83.58552
                      0.01445331        111.6506        0.7573836          14.523       0.01928456       -110.7595      0.002912819        92.91356
                     0.002912017        92.94921       0.01928464         -110.76        0.7573748         14.5263       0.01445229        111.6544
                     0.001190422       -83.58787      0.002738851        149.8685       0.01409067        111.1026        0.8019659        72.49705
20.2                    0.797698        68.87728       0.01385628        106.7095      0.003022521        146.0642      0.001336604        -91.8772
                      0.01454034        107.5002        0.7545185        11.06527       0.01930469       -115.2997       0.00285107        89.71265
                     0.002850396        89.75072       0.01930476       -115.3003        0.7545092         11.0687       0.01453929        107.5039
                     0.001336646       -91.87948      0.003021325        146.0681       0.01385649        106.7086        0.7977635        68.87932
20.225                 0.7934044        65.24149       0.01358487        102.4221      0.003299497         141.797      0.001483361        -100.204
                      0.01459345        103.2765        0.7517466        7.577391       0.01929253       -119.7937      0.002780836        86.87139
                     0.002780314        86.91183       0.01929259       -119.7942        0.7517368        7.580939       0.01459236        103.2801
                     0.001483393       -100.2062      0.003298495        141.8017       0.01358488        102.4203        0.7934692        65.24363
20.25                  0.7890308        61.58636       0.01327968        98.25932      0.003567399        137.1947      0.001630472       -108.5372
                      0.01460915        98.99207        0.7490767        4.059604       0.01925009       -124.2246      0.002705212        84.44862
                     0.002704867         84.4912       0.01925016       -124.2251        0.7490662         4.06328       0.01460803        98.99555
                     0.001630496       -108.5393      0.003566596        137.1995       0.01327946        98.25671        0.7890947        61.58859
20.275                 0.7845901        57.91064       0.01294495         94.2412      0.003823074        132.3523      0.001777719       -116.8549
                      0.01458458        94.66038        0.7465188       0.5123287       0.01918021        -128.576      0.002628014        82.50132
                     0.002627868        82.54567       0.01918026       -128.5766        0.7465077       0.5161323       0.01458341        94.66373
                     0.001777732        -116.857      0.003822471        132.3568       0.01294449        94.23785         0.784653        57.91298
20.3                   0.7800966        54.21318        0.0125856        90.38891      0.004063851        127.3409      0.001924824       -125.1401
                      0.01451746         90.2959        0.7440846       -3.063884       0.01908648       -132.8327      0.002553786        81.07748
                     0.002553859        81.12292       0.01908654       -132.8333        0.7440727        -3.05995       0.01451625        90.29914
                     0.001924828       -125.1421      0.004063449        127.3448       0.01258488        90.38497        0.7801585        54.21565
20.325                 0.7755659        50.49295       0.01220711         86.7246       0.00428747        122.2152      0.002071456       -133.3785
                      0.01440621        85.91413        0.7417868       -6.668353       0.01897328       -136.9804      0.002487737        80.20471
                     0.002488043         80.2503       0.01897333        -136.981        0.7417741       -6.664287       0.01440495        85.91725
                     0.002071448       -133.3805      0.004287262        122.2183       0.01220612        86.72023        0.7756267        50.49555
20.35                  0.7710149        46.74901       0.01181561        83.27095      0.004492042        117.0186      0.002217222       -141.5588
                      0.01424993        81.53161        0.7396392       -10.30029       0.01884571       -141.0064      0.002435541        79.87573
                     0.002436086        79.92026       0.01884576       -141.0071        0.7396256       -10.29609       0.01424862        81.53466
                     0.002217204       -141.5607       0.00449202        117.0206       0.01181433        83.26634        0.7710745        46.75177
20.375                 0.7664619        42.98052       0.01141777        80.05046      0.004676032        111.7863      0.002361678       -149.6712
                      0.01404846        77.16621        0.7376566        -13.9588       0.01870957       -144.9001      0.002402953        80.03327
                      0.00240373        80.07527       0.01870961       -144.9008         0.737642       -13.95448        0.0140471        77.16918
                      0.00236165        -149.673      0.004676189        111.7872       0.01141621        80.04585        0.7665202        42.98347
20.4                   0.7619263        39.18678       0.01102078        77.08437       0.00483826        106.5482      0.002504333       -157.7075
                      0.01380241        72.83726        0.7358542       -17.64292       0.01857122       -148.6535      0.002395241        80.56084
                     0.002396229        80.59882       0.01857125       -148.6541        0.7358387       -17.63846       0.01380099        72.84019
                     0.002504295       -157.7093      0.004838584        106.5478       0.01101894        77.08006        0.7619835        39.18991
20.425                 0.7574292        35.36712       0.01063226        74.39103      0.004977902        101.3302      0.002644654       -165.6607
                      0.01351314        68.56592        0.7342478       -21.35159        0.0184375       -152.2615      0.002416507        81.28715
                     0.002417671        81.31985       0.01843752       -152.2623        0.7342313       -21.34699       0.01351167        68.56885
                     0.002644606       -165.6624      0.004978379        101.3285       0.01063015        74.38734         0.757485        35.37048
20.45                  0.7529926        31.52102       0.01026008        71.98373      0.005094497        96.15592      0.002782082       -173.5249
                      0.01318286         64.3755        0.7328533       -25.08369       0.01831555       -155.7235       0.00246909        82.00824
                     0.002470384         82.0349       0.01831556       -155.7242        0.7328357       -25.07897       0.01318133        64.37847
                     0.002782022       -173.5265       0.00509511        96.15274       0.01025773        71.98104        0.7530471        31.52462
20.475                  0.748639        27.64806       0.00991221        69.86799      0.005187964        91.04693      0.002916035        178.7052
                       0.0128146        60.29188         0.731686       -28.83806       0.01821259       -159.0429      0.002553256        82.52198
                     0.002554626        82.54248       0.01821259       -159.0437        0.7316675       -28.83321       0.01281301        60.29493
                     0.002915965        178.7037      0.005188695        91.04218      0.009909656        69.86671        0.7486923         27.6519
20.5                   0.7443926        23.74788      0.009596412        68.03862      0.005258605        86.02385      0.003045929         171.034
                      0.01241227        56.34386        0.7307612       -32.61349       0.01813568       -162.2283      0.002667282        82.66186
                     0.002668675        82.67659       0.01813568       -162.2292        0.7307416       -32.60851       0.01241063        56.34708
                     0.003045849        171.0326      0.005259434        86.01747        0.0095937        68.03912        0.7444447        23.75199
20.525                 0.7402773        19.82026      0.009319868        66.47675      0.005307127        81.10674      0.003171185        163.4655
                      0.01198072         52.5637         0.730093        -36.4087       0.01809145       -165.2937      0.002807885        82.31715
                     0.002809255        82.32693       0.01809143       -165.2945        0.7300725       -36.40361       0.01197903        52.56715
                     0.003171095        163.4641      0.005308032        81.09865      0.009317054        66.47945        0.7403281        19.82465
20.55                  0.7363177        15.86508      0.009088776        65.14798      0.005334644        76.31522      0.003291244         156.003
                      0.01152577        48.98729        0.7296944       -40.22244       0.01808575       -168.2578      0.002970801        81.43563
                     0.002972109        81.44149       0.01808572       -168.2587        0.7296729       -40.21724       0.01152402         48.9911
                     0.003291146        156.0017      0.005335601        76.30535      0.009085931        65.15314        0.7363674        15.86975
20.575                 0.7325384        11.88232      0.008907891        64.00194       0.00534269        71.66863      0.003405583        148.6497
                      0.01105425        45.65435        0.7295772       -44.05338        0.0181234       -171.1441      0.003151332        80.01335
                     0.003152549        80.01627       0.01812335        -171.145        0.7295548       -44.04806       0.01105247        45.65861
                     0.003405477        148.6485      0.005343674        71.65693      0.008905085        64.00978        0.7325872        11.88729
20.6                    0.728964        7.872108      0.008780129        62.97438      0.005333221        67.18589      0.003513723        141.4084
                      0.01057412        42.60797        0.7297511       -47.90018       0.01820789       -173.9795      0.003344763        78.07926
                     0.003345868        78.08019       0.01820782       -173.9805        0.7297277       -47.89476       0.01057231        42.61284
                     0.003513609        141.4074      0.005334205        67.17237      0.008777436        62.98494        0.7290118        7.877368
20.625                 0.7256183        3.834677      0.008706284        61.99182      0.005308612         62.8852      0.003615246        134.2816
                      0.01009449        39.89348        0.7302245       -51.76146       0.01834118        -176.793      0.003546615        75.68087
                     0.003547595        75.68057        0.0183411        -176.794        0.7302003       -51.75595       0.01009266        39.89913
                     0.003615124        134.2807      0.005309569        62.86979      0.008703777        62.00497        0.7256651        3.840235
20.65                  0.7225243      -0.2295878       0.00868495        60.97791      0.005271649        58.78335      0.003709799        127.2715
                     0.009625607        37.55603         0.731003       -55.63587       0.01852359       -179.6141      0.003752782        72.87343
                      0.00375363        72.87249        0.0185235        -179.615         0.730978       -55.63028      0.009623782        37.56266
                     0.003709671        127.2707      0.005272551         58.7661      0.008682694        60.99338        0.7225703      -0.2237351
20.675                 0.7197042       -4.320159      0.008712663         59.8606      0.005225497        54.89488      0.003797113        120.3803
                     0.009178866        35.63626        0.7320903         -59.522       0.01875377        177.5292      0.003959586        69.71291
                       0.0039603        69.71181       0.01875366        177.5283        0.7320645       -59.51634      0.009177068        35.64408
                      0.00379698        120.3796      0.005226314        54.87584      0.008710709        59.87799        0.7197494       -4.314018
20.7                   0.7171787       -8.436353      0.008784241        58.57829       0.00517366        51.23078      0.003877004        113.6097
                     0.008766577         34.1636        0.7334876       -63.41845       0.01902874        174.6115      0.004163782        66.25216
                     0.004164364        66.25128       0.01902861        174.6106        0.7334611       -63.41271      0.008764834        34.17279
                     0.003876866        113.6091      0.005174366        51.21006      0.008782632         58.5971        0.7172233       -8.429932
20.725                  0.714967       -12.57732      0.008893274        57.08384      0.005119911        47.79694      0.003949379        106.9613
                     0.008401566        33.14704        0.7351934       -67.32376       0.01934409        171.6112      0.004362538        62.53917
                     0.004362993        62.53877       0.01934394        171.6103        0.7351664       -67.31796      0.008399911        33.15779
                     0.003949239        106.9608      0.005120479        47.77472      0.008892035        57.10356        0.7150108       -12.57063
20.75                  0.7130861       -16.74205      0.009032646        55.34604      0.005068192        44.59238      0.004014246        100.4364
                     0.008096465        32.56447        0.7372038       -71.23651       0.01969416        168.5117      0.004553418        58.61645
                     0.004553752         58.6167       0.01969399        168.5108        0.7371761        -71.2307      0.008094936        32.57686
                     0.004014104        100.4361        0.0050686         44.5689      0.009031786        55.36618        0.7131293       -16.73511
20.775                 0.7115513       -20.92935      0.009195033        53.34886       0.00502248        41.60744      0.004071707        94.03592
                     0.007862672        32.35318         0.739512       -75.15527       0.02007233        165.3011      0.004734348        54.52117
                     0.004734571        54.52225       0.02007215        165.3003        0.7394838       -75.14944      0.007861307        32.36722
                     0.004071565        94.03581      0.005022708        41.58302      0.009194546        53.36899        0.7115939       -20.92217
20.8                   0.7103754       -25.13785      0.009373306        51.08919      0.004986619        38.82229      0.004121966         87.7604
                     0.007709074        32.40617        0.7421088       -79.07854       0.02047132        161.9728      0.004903603        50.28567
                     0.004903725        50.28766       0.02047112        161.9719          0.74208        -79.0727      0.007707911        32.42169
                     0.004121824        87.76041      0.004986654        38.79733      0.009373181         51.1089        0.7104174       -25.13046
20.825                 0.7095689         -29.366      0.009560843         48.5738      0.004964122        36.20614      0.004165314        81.60977
                     0.007640793        32.57836        0.7449824       -83.00486       0.02088338        158.5243      0.005059775        45.93798
                     0.005059808        45.94096       0.02088315        158.5234        0.7449533       -82.99904      0.007639862        32.59506
                     0.004165176        81.60995      0.004963959        36.18107      0.009561062        48.59279        0.7096103       -29.35843
20.85                  0.7091394       -33.61211      0.009751721        45.81639      0.004957967        33.71761      0.004202134        75.58337
                      0.00765832        32.70418        0.7481185       -86.93281        0.0213006        154.9572      0.005201763        41.50245
                     0.005201719        41.50645       0.02130037        154.9564         0.748089       -86.92694      0.007657643        32.72166
                     0.004201999         75.5837      0.004957604        33.69291      0.009752251        45.83443        0.7091801       -33.60438
20.875                 0.7090919       -37.87428      0.009940812        42.83499      0.004970395        31.30646      0.004232878        69.67981
                     0.007757378         32.6221        0.7515005        -90.8608       0.02171514        151.2765      0.005328754         37.0002
                     0.005328646        37.00525       0.02171489        151.2757        0.7514708       -90.85498      0.007756963        32.63989
                     0.004232749        69.68028      0.004969842        31.28259      0.009941623         42.8519        0.7091318       -37.86641
20.9                   0.7094285        -42.1505       0.01012384        39.64981      0.005002761        28.91667      0.004258065        63.89679
                     0.007929582        32.19759        0.7551098       -94.78741       0.02211934        147.4895      0.005440204        32.44971
                     0.005440045        32.45582       0.02211908        147.4888          0.75508       -94.78163      0.007929425        32.21525
                     0.004257943        63.89741      0.005002033        28.89408       0.01012489        39.66549        0.7094677       -42.14252
20.925                 0.7101485       -46.43859       0.01029734        36.28175      0.005055439        26.49067      0.004278257        58.23108
                     0.008163656         31.3373        0.7589257       -98.71118       0.02250595        143.6058      0.005535828        27.86709
                     0.005535631        27.87424       0.02250568        143.6051        0.7588956       -98.70547      0.008163747        31.35448
                     0.004278144        58.23185      0.005054561        26.46969       0.01029861        36.29612        0.7101868       -46.43054
20.95                  0.7112481       -50.73628       0.01045868        32.75129      0.005127817        23.97358      0.004294042        52.67836
                     0.008446859        29.99171        0.7629258       -102.6306       0.02286821        139.6361      0.005615578        23.26645
                     0.005615357        23.27463       0.02286793        139.6355        0.7628957        -102.625      0.008447175        30.00815
                     0.004293939        52.67926      0.005126818        23.95448       0.01046011        32.76433        0.7112855       -50.72818
20.975                 0.7127208       -55.04114       0.01060593        29.07779      0.005218366        21.31718      0.004306015        47.23319
                     0.008766204        28.14902        0.7670863       -106.5443       0.02319994        135.5923      0.005679632        18.66013
                     0.005679399        18.66931       0.02319966        135.5917         0.767056       -106.5387      0.008766722        28.16457
                     0.004305924        47.23421      0.005217279        21.30012        0.0106075        29.08951        0.7127572       -55.03306
21                     0.7145572       -59.35079       0.01073785        25.27912      0.005324781        18.48264      0.004314753        41.88892
                     0.009109363        25.82487        0.7713821       -110.4508       0.02349564        131.4869      0.005728368        14.05888
                     0.005728137        14.06902       0.02349535        131.4862        0.7713518       -110.4453       0.00911006        25.83942
                     0.004314674        41.89005      0.005323639        18.46765       0.01073952        25.28956        0.7145924       -59.34269
21.025                 0.7167452        -63.6626       0.01085379        21.37141      0.005444158        15.44179      0.004320789        36.63778
                     0.009465201        23.05185        0.7757871       -114.3486       0.02375052        127.3327      0.005762352        9.472016
                     0.005762134        9.483064       0.02375022        127.3321        0.7757569       -114.3432      0.009466048        23.06541
                     0.004320724        36.63899      0.005442995        15.42882       0.01085552         21.3806         0.716779       -63.65457
21.05                  0.7192699       -67.97412       0.01095363         17.3689      0.005573188        12.17714      0.004324594        31.47084
                     0.009824003        19.87115        0.7802749       -118.2366       0.02396055        123.1429       0.00578231        4.907491
                     0.005782115        4.919395       0.02396025        123.1423        0.7802447       -118.2312      0.009824977        19.88373
                     0.004324545        31.47212      0.005572038        12.16605       0.01095539        17.37693        0.7193023       -67.96612
21.075                 0.7221144       -72.28275        0.0110377          13.284      0.005708341        8.680761      0.004326553        26.37823
                      0.01017753        16.32658        0.7848184       -122.1131       0.02412253        118.9308      0.005789104       0.3719636
                     0.005788942       0.3846572       0.02412223        118.9303        0.7847883       -122.1079       0.01017861        16.33825
                     0.004326519        26.37956      0.005707234        8.671374       0.01103946        13.29096        0.7221453       -72.27484
21.1                   0.7252591       -76.58595       0.01110672        9.127305      0.005846029        4.952691      0.004326942        21.34927
                      0.01051896        12.46098        0.7893905       -125.9772       0.02423406        114.7097      0.005783711       -4.129184
                     0.005783591       -4.115774       0.02423375        114.7092        0.7893605       -125.9721       0.01052012         12.4718
                     0.004326925        21.35062      0.005844994        4.944795       0.01110846        9.133266        0.7252883       -76.57815
21.125                 0.7286827       -80.88121       0.01116172        4.907607       0.00598273       0.9990502      0.004325919        16.37267
                      0.01084275        8.314231        0.7939645       -129.8273       0.02429358        110.4931      0.005767193       -8.591838
                     0.005767122       -8.577793       0.02429328        110.4927        0.7939348       -129.8223       0.01084398        8.324274
                     0.004325918        16.37403      0.005981789       0.9924167       0.01116341        4.912682        0.7287102       -80.87357
21.15                  0.7323622       -85.16618       0.01120399       0.6320309      0.006115088        -3.16973      0.004323506        11.43687
                      0.01114452        3.922383        0.7985141       -133.6624       0.02430041        106.2944      0.005740669       -13.01316
                     0.005740651       -12.99857       0.02430011         106.294        0.7984846       -133.6576        0.0111458        3.931723
                     0.004323521         11.4382      0.006114261       -3.175332       0.01120562       0.6363351        0.7323877        -85.1587
21.175                 0.7362727       -89.43849         0.011235         -3.6939      0.006239979       -7.540434      0.004319589        6.530257
                      0.01142094       -0.682529        0.8030138       -137.4814       0.02425473        102.1272      0.005705287       -17.39159
                     0.005705327       -17.37655       0.02425443        102.1268        0.8029845       -137.4767       0.01142225      -0.6738195
                      0.00431962        6.531549      0.006239282       -7.545228       0.01123654       -3.690249        0.7362963       -89.43117
21.2                   0.7403887       -93.69595       0.01125636       -8.066165      0.006354558       -12.09828      0.004313913         1.64152
                      0.01166956       -5.472311        0.8074389       -141.2832       0.02415761        98.00521      0.005662194       -21.72691