! TOUCHSTONE file generated by CST MICROWAVE STUDIO
! Date and time: Fri Jun  7 19:41:17 2024
! Project name: Final_26GHz_linear.cst
! Parameters = {Connector_spacing=15.33; Coplanar_gap=0.425; Distance_inner=4.78238; Distance_outer=14.3471; L=2.756; L_pad=5; Length_strip_inner=24.3248; Length_strip_outer=27.8328; Pad_via_diameter=2.1; Pad_via_x_centre=3.75; Pad_via_z_centre=2.8; Patch_spacing=5.76524; Via_diameter=0.4; Via_spacing=0.8; W=2.756; W_PCB=70; W_line_50=1.15; W_line_small=0.1; W_pad=6; c=2.99792e+08; er=3.8796; extra_distance_z=30; f=2.6e+10; k=3.99; lambda_0=11.5305; t_copper=0.012; t_substrate=0.508; theta_inner=11.3385; theta_outer=31.0293; x_triangle_inner=0.563778; x_triangle_outer=0.49272; z_Line=23.85; z_triangle_inner=0.113048; z_triangle_outer=0.296399}
! Header version: 2024
! Port assignment regex: !\s*Touchstone port\s*([0-9]+)\s*=\s*(CST MWS port|CST DES external port|CST DES block port)\s*(.+)\s* \(\"(.*)\"\)(\s*mode\s*([0-9]+))?.*
! Touchstone port assignment:
! Touchstone port 1 = CST MWS port 1 ("")
! Touchstone port 2 = CST MWS port 2 ("")
! Touchstone port 3 = CST MWS port 3 ("")
! Touchstone port 4 = CST MWS port 4 ("")
# GHz S MA R 50
20                     0.7467627        22.45604       0.01196148        74.11621      0.004061053        81.79218      0.001446133       -133.8651
                      0.01259569        64.57614        0.7332484       -34.51741       0.01941543       -153.8253      0.003776032        59.36254
                     0.003775136        59.39293       0.01941545       -153.8266        0.7332459       -34.50356       0.01259366         64.5928
                      0.00144606       -133.8655      0.004061783        81.76202       0.01195928        74.13574        0.7469355        22.47047
20.025                 0.7438206        18.51808       0.01215153        70.45835      0.003814772        79.17503      0.001737256       -137.2823
                      0.01272554        61.30145         0.732355       -38.34301         0.019925       -156.7007      0.003439252        54.88927
                     0.003438519          54.924       0.01992498       -156.7019        0.7323514       -38.32872       0.01272373        61.31963
                     0.001737181       -137.2825      0.003815244        79.14208       0.01214966        70.47936        0.7439934        18.53283
20.05                  0.7411344        14.53974       0.01231507        66.51084      0.003579778        77.66353      0.002046737       -142.3182
                      0.01284632        57.74846        0.7318681       -42.18651       0.02049614       -159.7755      0.003081314        51.52435
                     0.003080801        51.56425        0.0204961       -159.7768        0.7318633       -42.17176        0.0128448        57.76785
                      0.00204666       -142.3182      0.003579944         77.6283       0.01231357        66.53291        0.7413077        14.55482
20.075                 0.7386934        10.51944       0.01244096        62.31192      0.003375097         77.3962      0.002367661       -148.3966
                      0.01294509        53.93835        0.7318006       -46.04891       0.02111589       -163.0638      0.002717139        49.76099
                      0.00271692        49.80676       0.02111582       -163.0651        0.7317946       -46.03369       0.01294386        53.95867
                     0.002367584       -148.3966      0.003374921        77.35984       0.01243984        62.33472        0.7388673        10.53483
20.1                   0.7364848        6.456201       0.01252015        57.90301       0.00322259         78.3861      0.002694958       -155.1624
                       0.0130106        49.90045        0.7321589       -49.93115       0.02177023       -166.5687      0.002369406         50.3136
                      0.00236957        50.36512       0.02177013         -166.57        0.7321516       -49.91546        0.0130097         49.9214
                     0.002694879       -155.1624      0.003222054        78.35063       0.01251941        57.92621        0.7366595        6.471908
20.125                 0.7344949        2.349745       0.01254571          53.327      0.003144177        80.41211      0.003024497       -162.3912
                      0.01303361        45.66941        0.7329422       -53.83406       0.02244481       -170.2848      0.002073098        54.05265
                     0.002073735        54.10719       0.02244468       -170.2861        0.7329339       -53.81788       0.01303302        45.69074
                     0.003024417       -162.3912      0.003143304        80.38011       0.01254535        53.35032        0.7346705        2.365755
20.15                  0.7327102       -1.799561       0.01251281        48.62747      0.003156833        82.96765      0.003352654       -169.9367
                      0.01300693        41.28339        0.7341437       -57.75824       0.02312541          -174.2       0.00187812        61.46536
                     0.001879268          61.515       0.02312526       -174.2012        0.7341342       -57.74158       0.01300665        41.30488
                     0.003352573       -169.9367      0.003155693        82.94155        0.0125128        48.65065        0.7328865       -1.783262
20.175                 0.7311181       -5.990691       0.01241864        43.84855      0.003267321        85.36776      0.003676082       -177.7001
                      0.01292548        36.78298        0.7357495       -61.70403       0.02379836       -178.2977      0.001837442        71.41237
                     0.001838998        71.44596       0.02379818       -178.2989        0.7357389       -61.68687       0.01292549        36.80442
                        0.003676       -177.7002      0.003266022        85.34882       0.01241896        43.87138        0.7312954       -5.974118
20.2                   0.7297077       -10.22199       0.01226238        39.03537      0.003470272        86.98862      0.003991608        174.3872
                      0.01278628        32.21071        0.7377401       -65.67141       0.02445082        177.4415      0.001973315        80.82479
                     0.001975032        80.83801       0.02445062        177.4404        0.7377285       -65.65377       0.01278655        32.23192
                     0.003991524        174.3871      0.003468935         86.9766       0.01226298        39.05764        0.7298858       -10.20516
20.225                 0.7284706       -14.49124       0.01204513        34.23474      0.003751039        87.45937      0.004296181        166.3744
                       0.0125884        27.61124        0.7400907       -69.65999       0.02507101        173.0389      0.002259261         87.1082
                     0.002260907        87.10657       0.02507079        173.0378        0.7400781       -69.64186       0.01258891        27.63205
                     0.004296097        166.3742      0.003749767        87.45294       0.01204597        34.25625        0.7286492       -14.47417
20.25                  0.7274006       -18.79566       0.01176992        29.49605      0.004090814        86.68461      0.004586866        158.2979
                        0.012333         23.0318        0.7427718       -73.66895       0.02564835        168.5161      0.002646371         89.7923
                     0.002647815        89.78322       0.02564811         168.515        0.7427584       -73.65034       0.01233369        23.05205
                     0.004586781        158.2977      0.004089689        86.68209       0.01177095        29.51665        0.7275797       -18.77838
20.275                 0.7264951       -23.13206        0.0114417        24.87241       0.00447079        84.75159      0.004860841        150.1852
                      0.01202325        18.52289        0.7457505       -77.69709       0.02617355         163.895      0.003091885         89.5972
                     0.003093077        89.58544        0.0261733        163.8939        0.7457361       -77.67801       0.01202409        18.54244
                     0.004860757        150.1849      0.004469866        84.75149       0.01144286        24.89192        0.7266745       -23.11457
20.3                   0.7257542       -27.49683       0.01106737        20.42156      0.004874235         81.8265      0.005115423        142.0577
                      0.01166439        14.13914        0.7489904       -81.74276       0.02663873        159.1971      0.003565943        87.36924
                      0.00356687        87.35727       0.02663846        159.1961        0.7489752       -81.72323       0.01166532        14.15786
                     0.005115339        142.0574      0.004873544        81.82769       0.01106859        20.43984        0.7259338       -27.47915
20.325                 0.7251816       -31.88609       0.01065586         16.2067      0.005287024        78.08811      0.005348089        133.9328
                      0.01126374        9.940092        0.7524533       -85.80392       0.02703743        154.4433      0.004048441        83.74887
                     0.004049106        83.73779       0.02703714        154.4423        0.7524376       -85.78395       0.01126471        9.957874
                     0.005348005        133.9324      0.005286585        78.08974       0.01065707        16.22363         0.725361       -31.86824
20.35                  0.7247837       -36.29571       0.01021823        12.29648      0.005697456        73.69744      0.005556495        125.8246
                      0.01083084        5.990532        0.7561004       -89.87814       0.02736463        149.6539      0.004525313        79.16908
                     0.004525722        79.15937       0.02736434        149.6529        0.7560838       -89.85776       0.01083178        6.007286
                     0.005556412        125.8242      0.005697277        73.69898       0.01021937        12.31196        0.7249625       -36.27773
20.375                 0.7245693       -40.72149      0.009767807        8.763618      0.006095859        68.78869      0.005738516        117.7454
                      0.01037745        2.359976        0.7598917       -93.96273       0.02761684        144.8484      0.004986143        73.91649
                     0.004986306        73.90833       0.02761654        144.8474        0.7598746       -93.94192       0.01037831        2.375655
                     0.005738435         117.745      0.006095943        68.78977      0.009768804        8.777642        0.7247474       -40.70336
20.4                   0.7245502       -45.15913      0.009320253        5.681016      0.006474212        63.46996      0.005892267        109.7061
                     0.009917747      -0.8796266        0.7637887       -98.05467       0.02779203        140.0459      0.005422822        68.18291
                     0.005422751        68.17634       0.02779173        140.0449         0.763771       -98.03348      0.009918472       -0.865009
                     0.005892188        109.7057      0.006474554        63.47029      0.009321033        5.693641        0.7247272       -45.14088
20.425                 0.7247394       -49.60442      0.008893545        3.113742      0.006825843        57.82712      0.006016131        101.7168
                     0.009468299       -3.659158        0.7677536       -102.1507       0.02788969        135.2647      0.005828823        62.09976
                     0.005828526        62.09478       0.02788938        135.2638        0.7677353       -102.1292      0.009468825       -3.645496
                     0.006016053        101.7164      0.006826438        57.82658      0.008894042        3.125184        0.7249151       -49.58606
20.45                  0.7251518       -54.05324      0.008507639        1.105608      0.007145214        51.92839      0.006108781        93.78723
                     0.009047926       -5.922004        0.7717509       -106.2475       0.02791079        130.5228       0.00619879        55.75958
                     0.006198282        55.75613       0.02791048        130.5219        0.7717322       -106.2256        0.0090482        -5.90906
                     0.006108707        93.78669      0.007146051        51.92683      0.008507797         1.11627        0.7253259       -54.03478
20.475                 0.7258026       -58.50168      0.008183638      -0.3399096      0.007427768        45.82826       0.00616921        85.92699
                     0.008677168       -7.639137         0.775748       -110.3416       0.02785777        125.8375      0.006528328        49.22938
                     0.006527622        49.22744       0.02785745        125.8366        0.7757287       -110.3194      0.008677151       -7.626509
                     0.006169138        85.92641      0.007428833        45.82561      0.008183417      -0.3293893        0.7259749       -58.48314
20.5                   0.7267071        -62.9461      0.007942204       -1.280941      0.007669818        39.57083      0.006196742         78.1462
                     0.008377171       -8.828608        0.7797148       -114.4295        0.0277345        121.2257       0.00681387        42.55922
                     0.006812979        42.55877       0.02773419        121.2248        0.7796952        -114.407      0.008376838       -8.815706
                     0.006196673        78.14557      0.007671095        39.56702       0.00794159       -1.269707        0.7268775       -62.92749
20.525                 0.7278802       -67.38318      0.007801205       -1.851924      0.007868476        33.19237      0.006191054        70.45569
                     0.008167783       -9.574291        0.7836255       -118.5078       0.02754627        116.7039        0.0070526        35.78772
                     0.007051541        35.78873       0.02754596        116.7029        0.7836055       -118.4849      0.008167136       -9.560386
                      0.00619099        70.45498      0.007869949        33.18736      0.007800217       -1.838992        0.7280484       -67.36448
20.55                  0.7293355       -71.80993         0.007773       -2.259559      0.008021599        26.72329      0.006152199        62.86736
                     0.008065023       -10.03404        0.7874579       -122.5731       0.02729969        112.2876      0.007242417        28.94564
                     0.007241207        28.94809       0.02729938        112.2867        0.7874376       -122.5499      0.008064089       -10.01835
                     0.006152139        62.86661      0.008023249        26.71702      0.007771695       -2.243989        0.7295016       -71.79117
20.575                 0.7310849       -76.22378      0.007862237        -2.75297      0.008127745        20.18977      0.006080608        55.39475
                     0.008078481       -10.42662        0.7911939       -126.6222       0.02700262        107.9918      0.007381897        22.05847
                     0.007380555        22.06236       0.02700232        107.9909        0.7911732       -126.5988       0.00807732       -10.40846
                     0.006080551        55.39395       0.00812955        20.18219        0.0078607       -2.734066        0.7312486       -76.20495
20.6                   0.7331374       -80.62255      0.008065127       -3.575716      0.008186144        13.61495       0.00597711        48.05341
                     0.008209612       -10.99543        0.7948195       -130.6522       0.02666409          103.83      0.007470278        15.14818
                     0.007468822        15.15354       0.02666379        103.8291        0.7947986       -130.6286      0.008208301       -10.97439
                     0.005977058        48.05254      0.008188082        13.60602      0.008063461       -3.553158        0.7332987       -80.60367
20.625                 0.7354992       -85.00451      0.008370552       -4.920393      0.008196665         7.02001      0.005842947        40.86158
                     0.008451681       -11.96172        0.7983251       -134.6604       0.02629412        99.81428      0.007507434        8.234642
                     0.007505884        8.241484       0.02629383        99.81338        0.7983041       -134.6365      0.008450312       -11.93765
                       0.0058429        40.86064      0.008198712        7.009663      0.008368871       -4.894242        0.7356583       -84.98561
20.65                  0.7381729       -89.36836      0.008762478       -6.904608        0.0081598       0.4249776      0.005679785        33.84086
                     0.008791409       -13.48743        0.8017048       -138.6443       0.02590357        95.95424      0.007493864        1.336662
                      0.00749224        1.345033       0.02590328        95.95334        0.8016837       -138.6203      0.008790071       -13.46049
                     0.005679743        33.83986      0.008161932       0.4131585      0.008760879       -6.875213        0.7383296       -89.34939
20.675                  0.741157       -93.71312      0.009222648       -9.572188      0.008076632       -6.150444       0.00548973        27.01719
                     0.009211538       -15.66109        0.8049566        -142.602       0.02550389        92.25667      0.007430671       -5.527061
                     0.007428997       -5.517108       0.02550361        92.25578        0.8049353       -142.5777      0.009210308       -15.63162
                     0.005489692        27.01611      0.008078823       -6.163804      0.009221218       -9.540048        0.7413115       -93.69413
20.7                   0.7444453       -98.03822      0.009732778       -12.91045      0.007948819       -12.68617      0.005275348        20.42183
                     0.009693388       -18.50524        0.8080815       -146.5317       0.02510686        88.72462      0.007319551       -12.33706
                     0.007317848       -12.32545       0.02510659        88.72373        0.8080602       -146.5072      0.009692334       -18.47366
                     0.005275316        20.42066      0.007951042       -12.70114      0.009731586        -12.8761        0.7445979       -98.01921
20.725                 0.7480274       -102.3434       0.01027594        -16.8716      0.007778575       -19.16098      0.005039695        14.09275
                      0.01021876       -21.99497        0.8110838       -150.4321        0.0247242        85.35662      0.007162769       -19.07221
                     0.007161061       -19.05886       0.02472394        85.35572        0.8110625       -150.4075       0.01021794        -21.9617
                     0.005039667        14.09148      0.007780802       -19.17766       0.01027503       -16.83553        0.7481781       -102.3244
20.75                  0.7518874       -106.6288       0.01083719        -21.3907      0.007568644       -25.55174      0.004786347        8.076108
                      0.01077107        -26.0776        0.8139697       -154.3024       0.02436722        82.14588      0.006963152       -25.70874
                     0.006961464       -25.69355       0.02436696        82.14498        0.8139486       -154.2776        0.0107705       -26.04303
                     0.004786323        8.074731      0.007570848       -25.57022        0.0108366       -21.35335        0.7520365       -106.6098
20.775                  0.756005       -110.8945       0.01140376       -26.39792      0.007322297       -31.83257      0.004519453        2.427956
                      0.01133579       -30.68807        0.8167474       -158.1421       0.02404632        79.07996      0.006724075       -32.21913
                     0.006722431       -32.20198       0.02404607        79.07906        0.8167265       -158.1171       0.01133551        -30.6525
                     0.004519432        2.426456      0.007324448       -31.85297       0.01140352       -26.35963        0.7561528       -110.8755
20.8                   0.7603548       -115.1409       0.01196495       -31.82555      0.007043314       -37.97383      0.004243795       -2.784153
                      0.01190056       -35.75887        0.8194259       -161.9511       0.02377056        76.14044      0.006449458       -38.57068
                     0.006447885       -38.55142       0.02377032        76.13954        0.8194053        -161.926       0.01190058       -35.72259
                     0.004243777       -2.785794      0.007045383       -37.99626       0.01196506       -31.78661        0.7605013        -115.122
20.825                 0.7649066       -119.3687       0.01251185       -37.61135      0.006735981       -43.94098      0.003964866       -7.480164
                      0.01245504       -41.22568        0.8220142       -165.7299       0.02354721         73.3034       0.00614377       -44.72387
                     0.006142294       -44.70233       0.02354697        73.30247         0.821994       -165.7047       0.01245536       -41.18888
                     0.003964849       -7.481965      0.006737937       -43.96558       0.01251232       -37.57197        0.7650523       -119.3498
20.85                  0.7696261       -123.5783       0.01303716        -43.6997      0.006405103        -49.6933      0.003688957       -11.56823
                      0.01299063       -47.02975        0.8245212       -169.4791       0.02338134        70.54027      0.005812053       -50.63015
                     0.005810703       -50.60614       0.02338111        70.53934        0.8245014       -169.4538       0.01299125        -46.9926
                      0.00368894       -11.57021      0.006406915       -49.72024       0.01303798       -43.66005        0.7697713       -123.5594
20.875                 0.7744751       -127.7702       0.01353486       -50.04154      0.006056012       -55.18249      0.003423223       -14.94919
                      0.01350027        -53.1187        0.8269543       -173.1998       0.02327555        67.81934      0.005459964       -56.22939
                     0.005458769       -56.20271       0.02327532        67.81841        0.8269351       -173.1744       0.01350119       -53.08133
                     0.003423204       -14.95137      0.006057651       -55.21188       0.01353602       -50.00178        0.7746201       -127.7514
20.9                   0.7794123        -131.945       0.01400004       -56.59374      0.005694617       -60.35102       0.00317568       -17.52807
                      0.01397819       -59.44625        0.8293193       -176.8936       0.02322984         65.1076      0.005093847       -61.44678
                     0.005092837       -61.41721        0.0232296        65.10666        0.8293006       -176.8681        0.0139794       -59.40874
                     0.003175658       -17.53047      0.005696051       -60.38303       0.01400154       -56.55396        0.7795571       -131.9263
20.925                 0.7843932       -136.1031        0.0144287       -63.31826      0.005327445       -65.13117      0.002955016        -19.2366
                      0.01441967        -65.9715         0.831619        179.4381       0.02324163        62.37279      0.004720858       -66.18939
                     0.004720065       -66.15674        0.0232414        62.37185        0.8316011        179.4636       0.01442116       -65.93397
                     0.002954988       -19.23922      0.005328643       -65.16583       0.01443051       -63.27857        0.7845385       -136.0844
20.95                  0.7893721       -140.2447       0.01481757       -70.18124      0.004961721       -69.44433      0.002770054       -20.06869
                      0.01482093       -72.65827        0.8338536        175.7931       0.02330601        59.58543       0.00434912       -70.34362
                     0.004348577       -70.30784       0.02330577        59.58448        0.8338366        175.8188       0.01482267       -72.62074
                     0.002770017       -20.07151      0.004962652       -69.48173       0.01481967       -70.14172        0.7895178       -140.2261
20.975                 0.7943021       -144.3699         0.015164       -77.15237      0.004605434       -73.20292      0.002628715       -20.12242
                      0.01517889       -79.47411        0.8360201        172.1695       0.02341601        56.72035      0.003987941       -73.77519
                     0.003987681       -73.73628       0.02341578         56.7194        0.8360041        172.1953       0.01518087       -79.43669
                     0.002628668        -20.1254      0.004606069       -73.24297       0.01516638       -77.11307        0.7944483       -144.3515
21                     0.7991359       -148.4787       0.01546587       -84.20398      0.004267379       -76.31605      0.002536508       -19.62724
                      0.01549112       -86.38967        0.8381113        168.5652       0.02356315        53.75791      0.003648009       -76.33631
                     0.003648065       -76.29466       0.02356291        53.75695        0.8380963         168.591       0.01549332       -86.35236
                     0.002536449       -19.63029      0.004267693       -76.35838        0.0154685       -84.16498        0.7992831       -148.4604
21.025                 0.8038273       -152.5709       0.01572147       -91.31056      0.003957092       -78.70237      0.002494977       -18.92646
                      0.01575572       -93.37794        0.8401168        164.9779       0.02373786        50.68447      0.003341473       -77.88782
                     0.003341868       -77.84431       0.02373762        50.68351         0.840103        165.0037       0.01575812       -93.34085
                     0.002494904       -18.92949      0.003957066       -78.74635       0.01572432       -91.27185        0.8039753       -152.5528
21.05                  0.8083313       -156.6461       0.01592948       -98.44813      0.003684547       -80.31289       0.00250088       -18.40402
                      0.01597124       -100.4138        0.8420225        161.4055       0.02393005         47.4924      0.003081588       -78.34623
                     0.003082333       -78.30251       0.02392981        47.49145        0.8420099        161.4313       0.01597382        -100.377
                     0.002500793       -18.40696      0.003684175       -80.35746       0.01593253       -98.40983        0.8084805       -156.6282
21.075                 0.8126061       -160.7039       0.01608892        -105.594      0.003459455       -81.16407      0.002546666       -18.38806
                      0.01613664       -107.4735        0.8438109        157.8458       0.02412956        44.17976      0.002881507       -77.75777
                     0.002882585       -77.71633       0.02412931         44.1788        0.8437997        157.8717       0.01613937       -107.4369
                     0.002546567       -18.39083       0.00345875        -81.2077       0.01609215       -105.5561        0.8127565       -160.6862
21.1                   0.8166124       -164.7434       0.01619915       -112.7261      0.003290035       -81.37267      0.002622042       -19.08524
                      0.01625124        -114.534        0.8454617         154.297       0.02432659        40.74949      0.002751873       -76.37405
                     0.002753233       -76.33764       0.02432634        40.74853        0.8454517        154.3229       0.01625411       -114.4976
                     0.002621934       -19.08783      0.003289034       -81.41345       0.01620253       -112.6887         0.816764        -164.726
21.125                 0.8203155       -168.7641       0.01625984       -119.8229      0.003181396       -81.17197      0.002715823       -20.57174
                      0.01631475       -121.5728        0.8469519        150.7573       0.02451203         37.2087      0.002697656       -74.66305
                     0.002699211         -74.634       0.02451178        37.20774        0.8469433        150.7832       0.01631773       -121.5368
                     0.002715706       -20.57416      0.003180161       -81.20806       0.01626334        -119.786        0.8204683        -168.747
21.15                   0.823685       -172.7651       0.01627104       -126.8628       0.00313405       -80.88677      0.002817352       -22.82457
                      0.01632722       -128.5676        0.8482567        147.2251       0.02467778        33.56776      0.002715872       -73.20066
                     0.002717516       -73.18002       0.02467752        33.56681        0.8482497         147.251       0.01633029       -128.5321
                     0.002817228       -22.82683      0.003132666       -80.91682       0.01627463       -126.8266        0.8238391       -172.7482
21.175                 0.8266962       -176.7455       0.01623319       -133.8242      0.003143361       -80.86377      0.002917272       -25.76329
                      0.01628915       -135.4959         0.849351        143.6991        0.0248169        29.83954      0.002795973       -72.48742
                     0.002797603       -72.47463       0.02481664         29.8386        0.8493453         143.725       0.01629229       -135.4608
                     0.002917143       -25.76542       0.00314192       -80.88737       0.01623686       -133.7886        0.8268513       -176.7289
21.2                   0.8293296        179.2956       0.01614721       -140.6846      0.003200336       -81.39045       0.00300778       -29.28319
                      0.01620146       -142.3347        0.8502085        140.1782       0.02492379        26.03872      0.002922804       -72.81794