! TOUCHSTONE file generated by CST MICROWAVE STUDIO
! Date and time: Sat Jun  8 23:23:02 2024
! Project name: Final_26GHz_linear.cst
! Parameters = {tand=0.0037; Connector_spacing=15.33; Coplanar_gap=0.425; Distance_inner=4.78238; Distance_outer=14.3471; L=2.444; L_pad=5; Length_strip_inner=24.3248; Length_strip_outer=27.8328; Pad_via_diameter=2.1; Pad_via_x_centre=3.75; Pad_via_z_centre=2.8; Patch_spacing=5.76524; Via_diameter=0.4; Via_spacing=0.8; W=2.444; W_PCB=70; W_line_50=1.15; W_line_small=0.1; W_pad=6; c=2.99792e+08; er=3.66; extra_distance_z=30; f=2.6e+10; k=3.99; lambda_0=11.5305; t_copper=0.012; t_substrate=0.508; theta_inner=11.3385; theta_outer=31.0293; x_triangle_inner=0.563778; x_triangle_outer=0.49272; z_Line=23.85; z_triangle_inner=0.113048; z_triangle_outer=0.296399}
! Header version: 2024
! Port assignment regex: !\s*Touchstone port\s*([0-9]+)\s*=\s*(CST MWS port|CST DES external port|CST DES block port)\s*(.+)\s* \(\"(.*)\"\)(\s*mode\s*([0-9]+))?.*
! Touchstone port assignment:
! Touchstone port 1 = CST MWS port 1 ("")
! Touchstone port 2 = CST MWS port 2 ("")
! Touchstone port 3 = CST MWS port 3 ("")
! Touchstone port 4 = CST MWS port 4 ("")
# GHz S MA R 50
20                     0.8359271        103.6385       0.01110441        155.5859      0.002624859        159.3404     0.0006385768       -100.6202
                      0.01257921           143.8        0.7994265        43.79388       0.01671161       -80.12422       0.00276888        107.1875
                     0.002766561        107.2164       0.01671179        -80.1252        0.7994184        43.80301       0.01258095        143.8196
                    0.0006385817       -100.6226      0.002624883        159.3118       0.01110527        155.5933        0.8361482        103.6537
20.025                 0.8335183        100.0738       0.01130818        152.6095      0.002789989        154.9284     0.0006754074       -102.1458
                      0.01263033        140.2569        0.7966093        40.63608       0.01645089       -84.44337      0.002681801        103.4706
                      0.00267954        103.5039       0.01645105       -84.44432        0.7966013        40.64514       0.01263225        140.2755
                    0.0006754067       -102.1481      0.002790049        154.9021       0.01130875        152.6171        0.8337381        100.0888
20.05                  0.8309787        96.51695       0.01152859        149.4654      0.002945009         150.285     0.0007172223       -104.4373
                      0.01268231        136.7225        0.7938167        37.45804       0.01617325       -88.64512        0.0025886        100.1972
                     0.002586431        100.2353        0.0161734       -88.64607        0.7938089        37.46702       0.01268439        136.7399
                    0.0007172159       -104.4394      0.002945114        150.2604       0.01152891        149.4736        0.8311974        96.53172
20.075                 0.8283165        92.96548       0.01175832        146.1436      0.003087221        145.4797     0.0007628274        -107.385
                      0.01273488        133.1869        0.7910395        34.25863       0.01588424       -92.70883      0.002492602        97.42094
                     0.002490566        97.46448       0.01588438       -92.70976        0.7910317        34.26754       0.01273707         133.203
                    0.0007628154       -107.3869      0.003087376        145.4565       0.01175842        146.1525        0.8285336        92.98011
20.1                   0.8255374        89.41719       0.01198974        142.6417      0.003214355        140.5714     0.0008113983       -110.8744
                       0.0127873        129.6402        0.7882696        31.03702       0.01559016       -96.61526      0.002397672        95.19188
                      0.00239581        95.24123       0.01559029       -96.61616        0.7882619        31.04585       0.01278958        129.6549
                     0.000811381        -110.876      0.003214563        140.5491       0.01198967        142.6514        0.8257534        89.43168
20.125                 0.8226467        85.86984       0.01221523        138.9642      0.003324551        135.6107     0.0008624171       -114.7997
                      0.01283842        126.0729        0.7855006         27.7926         0.015298       -100.3475      0.002308149        93.54787
                     0.002306507        93.60314       0.01529813       -100.3484        0.7854928        27.80137       0.01284073        126.0862
                    0.0008623949       -114.8009      0.003324812        135.5891       0.01221503        138.9747        0.8228615         85.8842
20.15                  0.8196482        82.32131       0.01242738        135.1203       0.00341636        130.6427     0.0009156063        -119.069
                      0.01288664        122.4764        0.7827286        24.52505       0.01501538       -103.8923      0.002228715        92.50222
                     0.002227336        92.56313        0.0150155       -103.8932        0.7827207        24.53374       0.01288893        122.4883
                    0.0009155797       -119.0699       0.00341667        130.6215        0.0124271        135.1316        0.8198616        82.33558
20.175                 0.8165453        78.76961       0.01261919        131.1232       0.00348875        125.7089     0.0009708715       -123.6057
                      0.01292995        118.8431         0.779952        21.23423       0.01475038       -107.2409      0.002164115        92.02903
                     0.002163041         92.0947       0.01475049       -107.2418         0.779944        21.24285       0.01293218        118.8535
                    0.0009708412       -123.6063      0.003489107        125.6879       0.01261887        131.1354        0.8167575        78.78381
20.2                   0.8133406        75.21287       0.01278421        126.9888      0.003541131        120.8487      0.001028255       -128.3472
                      0.01296598        115.1668        0.7771726         17.9202       0.01451133       -110.3914      0.002118746        92.05013
                     0.002118009        92.11905       0.01451143       -110.3922        0.7771643        17.92876        0.0129681         115.176
                     0.001028222       -128.3474      0.003541527        120.8277       0.01278388        127.0017        0.8135515          75.227
20.225                  0.810037        71.64933       0.01291664        122.7346      0.003573373         116.101        0.0010879       -133.2432
                      0.01299209        111.4432        0.7743948        14.58316       0.01430657       -113.3491      0.002096129        92.43064
                     0.002095743        92.50071       0.01430667         -113.35        0.7743861        14.59166       0.01299406        111.4511
                     0.001087864       -133.2432      0.003573801        116.0797       0.01291634        122.7482        0.8102467        71.66343
20.25                  0.8066377        68.07743        0.0130114        118.3792      0.003585847        111.5054       0.00115002       -138.2544
                      0.01300539        107.6697        0.7716263        11.22344       0.01414411        -116.129      0.002098375        92.98974
                     0.002098337        93.05856        0.0141442       -116.1298        0.7716173        11.23187       0.01300717        107.6764
                     0.001149983        -138.254      0.003586295        111.4836       0.01301116        118.3934        0.8068462        68.09149
20.275                 0.8031466        64.49569       0.01306417        113.9422      0.003579459        107.1027      0.001214879         -143.35
                      0.01300289        103.8454        0.7688781        7.841428        0.0140312       -118.7551      0.002125841        93.52732
                     0.002126128        93.59263       0.01403129        -118.756        0.7688687        7.849806       0.01300443        103.8511
                      0.00121484       -143.3494      0.003579915        107.0802       0.01306401         113.957        0.8033538        64.50977
20.3                   0.7995685        60.90285       0.01307146        109.4437      0.003555702        102.9361      0.001282769       -148.5072
                      0.01298153        99.97174         0.766164         4.43756       0.01397395       -121.2611      0.002177093        93.85843
                     0.002177666        93.91841       0.01397403        -121.262        0.7661541        4.445888       0.01298281        99.97659
                     0.001282731       -148.5065      0.003556152        102.9129       0.01307141        109.4589        0.7997747        60.91694
20.325                 0.7959096        57.29775       0.01303062        104.9045      0.003516709        99.05104      0.001353999       -153.7095
                       0.0129383        96.05202        0.7635006        1.012282       0.01397688       -123.6881      0.002249203        93.84195
                     0.002250011        93.89549       0.01397696        -123.689        0.7634901        1.020566        0.0129393         96.0562
                     0.001353962       -153.7086      0.003517136        99.02686       0.01303068        104.9199        0.7961148        57.31188
20.35                  0.7921778        53.67933       0.01293985         100.346      0.003465303        95.49455      0.001428875       -158.9453
                      0.01287035        92.09162        0.7609068       -2.433986       0.01404267       -126.0824      0.002338255        93.39382
                     0.002339242        93.44054       0.01404274       -126.0833        0.7608956        -2.42574       0.01287104        92.09531
                     0.001428839       -158.9443      0.003465689        95.46934       0.01294004        100.3616         0.792382        53.69352
20.375                 0.7883828         50.0467       0.01279825        95.79067      0.003405053        92.31363      0.001507689       -164.2075
                      0.01277504        88.09795        0.7584034       -5.900871       0.01417188       -128.4921      0.002439887        92.48478
                     0.002441001        92.52483       0.01417195        -128.493        0.7583915       -5.892657       0.01277542        88.10135
                     0.001507656       -164.2064      0.003405379        92.28732       0.01279856        95.80638        0.7885858        50.06096
20.4                   0.7845356        46.39903       0.01260579        91.26246      0.003340302        89.55183       0.00159071       -169.4922
                      0.01265005        84.08058        0.7560128       -9.388074       0.01436297       -130.9634      0.002549746        91.12802
                     0.002550936         91.1619       0.01436303       -130.9643        0.7560003       -9.379885       0.01265011        84.08385
                      0.00159068        -169.491      0.003340546        89.52449       0.01260623        91.27812        0.7847379        46.41339
20.425                 0.7806501        42.73559       0.01236338        86.78702      0.003276152        87.24382      0.001678168        -174.798
                      0.01249344        80.05117        0.7537585       -12.89538        0.0146124       -133.5369      0.002663794        89.36444
                     0.002665019        89.39284       0.01461245       -133.5379        0.7537453       -12.88721        0.0124932        80.05453
                     0.001678142       -174.7968      0.003276295        87.21555       0.01236394        86.80255        0.7808514        42.75008
20.45                  0.7767413        39.05575       0.01207287        82.39248      0.003218378        85.40717      0.001770248        179.8746
                      0.01230378        76.02376        0.7516643       -16.42268        0.0149149       -136.2459      0.002778488        87.24976
                     0.002779712        87.27346       0.01491494       -136.2469        0.7516504       -16.41452       0.01230324        76.02741
                     0.001770224        179.8758        0.0032184        85.37827       0.01207355        82.40775        0.7769418        39.07036
20.475                 0.7728266        35.35887       0.01173708        78.11012      0.003173211        84.03266      0.001867076        174.5239
                      0.01208016        72.01494        0.7497539       -19.96995       0.01526382       -139.1145      0.002890861        84.84541
                     0.002892057        84.86516       0.01526383       -139.1154        0.7497394        -19.9618       0.01207933        72.01904
                     0.001867057         174.525      0.003173097        84.00353       0.01173785        78.12498        0.7730263        35.37363
20.5                   0.7689249        31.64439       0.01135985        73.97505      0.003146969        83.07431      0.001968718        169.1476
                      0.01182229        68.04402        0.7480505       -23.53728        0.0156515       -142.1572      0.002998551        82.21276
                     0.002999696        82.22923        0.0156515       -142.1582        0.7480352       -23.52913        0.0118212        68.04878
                     0.001968702        169.1486      0.003146708        83.04555       0.01136069        73.98939         0.769124        31.65932
20.525                  0.765057        27.91176        0.0109461        70.02725      0.003145525        82.44354      0.002075166        163.7429
                      0.01153058         64.1336        0.7465758       -27.12484        0.0160697       -145.3804      0.003099797        79.40986
                     0.003100877        79.42367       0.01606968       -145.3814        0.7465598       -27.11669       0.01152925        64.13921
                     0.002075155        163.7438      0.003145115        82.41583       0.01094699        70.04096        0.7652555        27.92685
20.55                  0.7612446        24.16042       0.01050191        66.31232      0.003173681        82.01146      0.002186342        158.3072
                      0.01120621        60.30992        0.7453502       -30.73287        0.0165099       -148.7828      0.003193421        76.49001
                     0.003194424        76.50169       0.01650987       -148.7838        0.7453336       -30.72472       0.01120469        60.31658
                     0.002186335         158.308      0.003173127        81.98551       0.01050282        66.32527        0.7614425        24.17571
20.575                 0.7575107        20.38985       0.01003463        62.88227      0.003234579        81.62208      0.002302088        152.8383
                      0.01085123        56.60352        0.7443916       -34.36166       0.01696361       -152.3573      0.003278808        73.50105
                     0.003279727        73.51107       0.01696355       -152.3583        0.7443745        -34.3535       0.01084955        56.61142
                     0.002302084        152.8389      0.003233897        81.59851       0.01003553        62.89434        0.7577082        20.40533
20.6                   0.7538792        16.59949      0.009553005        59.79577      0.003329331        81.11423      0.002422167        147.3343
                      0.01046862        53.04995        0.7437157       -38.01154       0.01742255       -156.0926      0.003355881        70.48517
                     0.003356712        70.49392       0.01742248       -156.0935        0.7436981       -38.00337       0.01046681        53.05931
                     0.002422166        147.3347      0.003328545        81.09344      0.009553845        59.80683        0.7540762        16.61518
20.625                 0.7503738        12.78879      0.009067298        57.11742      0.003456966         80.3451      0.002546263        141.7937
                      0.01006241         49.6904        0.7433351       -41.68281       0.01787889       -159.9742      0.003425069        67.47876
                     0.003425813        67.48659       0.01787881       -159.9751        0.7433172       -41.67462       0.01006053        49.70141
                     0.002546264         141.794      0.003456105        80.32729      0.009068042        57.12745        0.7505705         12.8047
20.65                  0.7470191        8.957188      0.008589453        54.91526      0.003614706        79.20778      0.002673983         136.216
                      0.00963784        46.57237        0.7432595       -45.37574       0.01832532       -163.9857       0.00348728        64.51223
                     0.003487941         64.5194       0.01832521       -163.9867        0.7432411       -45.36754      0.009635929        46.58524
                     0.002673985        136.2162      0.003613801        79.19287      0.008590061        54.92421        0.7472154        8.973322
20.675                 0.7438385        5.104131      0.008133133        53.25484      0.003798442        77.63794      0.002804862        130.6011
                     0.009201452        43.74992        0.7434949       -49.09055       0.01875512         -168.11      0.003543853        61.60951
                     0.003544435        61.61627       0.01875499       -168.1109        0.7434762       -49.08233      0.009199563        43.76488
                     0.002804864        130.6011      0.003797525        77.62572      0.008133562         53.2628        0.7440345        5.120493
20.7                   0.7408554         1.22907      0.007713605        52.18884      0.004003269        75.61093      0.002938361        124.9493
                     0.008761292        41.28318        0.7440442        -52.8273       0.01916226       -172.3292      0.003596504        58.78762
                     0.003597015        58.79416       0.01916211       -172.3301        0.7440253       -52.81908      0.008759481        41.30041
                     0.002938365        124.9491      0.004002369        75.60109      0.007713817        52.19603        0.7410511        1.245662
20.725                 0.7380916       -2.668518      0.007347276        51.74081       0.00422395        73.13293      0.003073882        119.2616
                     0.008327045        39.23625        0.7449069       -56.58597       0.01954143       -176.6258      0.003647251        56.05589
                     0.003647699        56.06233       0.01954126       -176.6266        0.7448876       -56.57775      0.008325368        39.25591
                     0.003073884        119.2613      0.004223091        73.12509      0.007347241        51.74762        0.7382871       -2.651695
20.75                  0.7355681       -6.589113       0.00705069        51.88444      0.004455252        70.23075      0.003210764        113.5395
                     0.007910153        37.67255        0.7460787       -60.36635       0.01988804        179.0177       0.00369832        53.41531
                     0.003698714        53.42178       0.01988786        179.0168        0.7460594       -60.35812      0.007908669        37.69473
                     0.003210763         113.539      0.004454457         70.2245      0.007050393        51.89143        0.7357634       -6.572057
20.775                 0.7333038       -10.53313      0.006838856        52.52424      0.004692178        66.94268      0.003348295        107.7847
                     0.007523782        36.64614        0.7475524       -64.16807       0.02019827        174.6179      0.003752029        50.85817
                      0.00375238        50.86472       0.02019806        174.6171         0.747533        -64.1598      0.007522544        36.67083
                     0.003348293        107.7841      0.004691466        66.93772      0.006838305        52.53215        0.7334989       -10.51585
20.8                   0.7313161       -14.50091       0.00672309        53.48839      0.004930083        63.31195      0.003485723        101.9993
                      0.00718253        36.18795        0.7493174       -67.99045       0.02046904        170.1912      0.003810659        48.36801
                     0.003810975        48.37465       0.02046881        170.1905         0.749298       -67.98224      0.007181594        36.21495
                     0.003485717        101.9986      0.004929467        63.30796      0.006722311          53.498        0.7315109       -14.48339
20.825                 0.7296198       -18.49267      0.006708887        54.54472      0.005164735        59.38226      0.003622258        96.18567
                     0.006901694        36.28731        0.7513606       -71.83272       0.02069806        165.7532      0.003876307        45.92025
                     0.003876597        45.92697       0.02069782        165.7525        0.7513412       -71.82451      0.006901104        36.31623
                     0.003622247        96.18485      0.005164227        59.37897      0.006707937        54.55671        0.7298143       -18.47493
20.85                  0.7282277        -22.5085      0.006794711        55.44062      0.005392341        55.19521      0.003757079        90.34634
                     0.006695937        36.87301        0.7536658       -75.69382       0.02088385        161.3188      0.003950751        43.48365
                     0.003951023        43.49041        0.0208836        161.3181        0.7536465       -75.68561      0.006695723        36.90319
                     0.003757064        90.34541       0.00539195        55.19243      0.006793661         55.4554        0.7284217       -22.49055
20.875                 0.7271501       -26.54836      0.006972266        55.95193      0.005609538        50.78918      0.003889353         84.4839
                      0.00657742        37.80233        0.7562151       -79.57246       0.02102567        156.9025      0.004035318        41.02242
                     0.004035577        41.02915        0.0210254        156.9019        0.7561957       -79.56427      0.006577591        37.83291
                     0.003889333        84.48289      0.005609273        50.78669      0.006971198        55.96961        0.7273437       -26.53019
20.9                   0.7263947         -30.612      0.007228164        55.91935      0.005813391        46.19877      0.004018232        78.60116
                     0.006553745        38.86885        0.7589878       -83.46711       0.02112358        152.5181      0.004130795         38.4988
                     0.004131044        38.50544        0.0211233        152.5175        0.7589686       -83.45897      0.006554282        38.89893
                     0.004018206        78.60007      0.005813253        46.19643      0.007227158        55.93974        0.7265877       -30.59362
20.925                 0.7259664         -34.699      0.007546235         55.2599      0.006001372        41.45489      0.004142868        72.70086
                     0.006626423        39.83328        0.7619625        -87.3761       0.02117841        148.1789      0.004237365        35.87592
                     0.004237604        35.88239       0.02117812        148.1783        0.7619435       -87.36795      0.006627287        39.86205
                     0.004142837        72.69973      0.006001366        41.45257      0.007545364        55.28264        0.7261589       -34.68043
20.95                  0.7258679       -38.80873      0.007909681        53.95674      0.006171355        36.58503      0.004262421        66.78583
                     0.006790547        40.46816        0.7651163       -91.29744       0.02119177        143.8974        0.0043546         33.1203
                     0.004354828        33.12654       0.02119147        143.8969        0.7650973       -91.28935      0.006791681         40.4951
                     0.004262383        66.78466       0.00617148        36.58261      0.007909003         53.9814        0.7260596       -38.78997
20.975                 0.7260988       -42.94034      0.008302578        52.03892      0.006321593        31.61366      0.004376065        60.85888
                     0.007035786        40.59741        0.7684252       -95.22905       0.02116598        139.6857      0.004481492        30.20387
                     0.004481706        30.20983       0.02116567        139.6853        0.7684064       -95.22104      0.007037124        40.62227
                      0.00437602        60.85768      0.006321849        31.61103      0.008302144        52.06503        0.7262897        -42.9214
21                     0.7266565       -47.09275      0.008710709        49.56117      0.006450716        26.56258      0.004482998        54.92278
                     0.007348285        40.11531        0.7718651       -99.16875        0.0211041        135.5552      0.004616518        27.10515
                     0.004616714         27.1108       0.02110379        135.5547        0.7718465       -99.16074      0.007349766        40.13817
                     0.004482947        54.92155      0.006451103        26.55966      0.008710554        49.58834        0.7268465       -47.07364
21.025                 0.7275357       -51.26469      0.009121867        46.58865      0.006557715         21.4514      0.004582451        48.98027
                     0.007712688        38.98353        0.7754118       -103.1141       0.02100986        131.5161      0.004757734        23.80969
                     0.004757903        23.81502       0.02100954        131.5157        0.7753933       -103.1062      0.007714255        39.00462
                     0.004582394        48.97903      0.006558227        21.44812      0.009122016        46.61654        0.7277248       -51.24539
21.05                  0.7287288       -55.45459      0.009525847        43.18739      0.006641931        16.29787       0.00467369        43.03404
                      0.00811374        37.21466        0.7790414       -107.0627       0.02088761        127.5779      0.004902873        20.30976
                     0.004903009        20.31478       0.02088729        127.5775        0.7790231       -107.0548      0.008115347        37.23433
                     0.004673627         43.0328      0.006642564        16.29416      0.009526319        43.21572        0.7289169       -55.43516
21.075                 0.7302262       -59.66074        0.0099143        39.41908      0.006703046        11.11822      0.004756029        37.08675
                     0.008537301         34.8527        0.7827304       -111.0121       0.02074224        123.7487      0.005049451        16.60367
                     0.005049546        16.60839       0.02074193        123.7484        0.7827124       -111.0042      0.008538912        34.87131
                     0.004755962        37.08551      0.006703793        11.11401        0.0099151        39.44764        0.7304131       -59.64119
21.1                   0.7320158       -63.88125       0.01028052        35.33895       0.00674107        5.927386      0.004828834        31.14096
                     0.008970817        31.95687        0.7864568       -114.9596       0.02057913        120.0352      0.005194866        12.69468
                     0.005194913        12.69915       0.02057882        120.0349         0.786439       -114.9518      0.008972413        31.97474
                     0.004828762        31.13974      0.006741924        5.922617       0.01028165        35.36757        0.7322016       -63.86159
21.125                 0.7340841       -68.11403       0.01061923        30.99521      0.006756331       0.7393028      0.004891524        25.19923
                     0.009403462        28.59049        0.7901994       -118.9028       0.02040398        116.4419      0.005336484        8.589948
                     0.005336473        8.594208       0.02040368        116.4417        0.7901816       -118.8951      0.009405024        28.60794
                      0.00489145        25.19802      0.006757283       0.7339165        0.0106207        31.02371        0.7342686       -68.09425
21.15                  0.7364156       -72.35677       0.01092644        26.42933      0.006749454       -4.432965      0.004943585        19.26402
                     0.009826068         24.8147        0.7939385       -122.8393       0.02022274        112.9715      0.005471713        4.299478
                      0.00547164        4.303586       0.02022245        112.9713        0.7939209       -122.8316      0.009827593        24.83198
                     0.004943507        19.26284      0.006750496       -4.439022       0.01092824        26.45761        0.7365988        -72.3369
21.175                 0.7389934       -76.60714       0.01119924        21.67688      0.006721353       -9.577065      0.004984563        13.33777
                      0.01023099        20.68528        0.7976562       -126.7665       0.02004142        109.6239      0.005598067      -0.1647819
                     0.005597923      -0.1607646       0.02004114        109.6237        0.7976387       -126.7589       0.01023248         20.7026
                     0.004984485        13.33661      0.006722473        -9.58385       0.01120135        21.70487        0.7391752       -76.58719
21.2                   0.7417994       -80.86265       0.01143569         16.7683      0.006673204       -14.68128      0.005014078        7.422853
                      0.01061195        16.25151        0.8013365       -130.6822       0.01986595        106.3963      0.005713213       -4.789686