! TOUCHSTONE file generated by CST MICROWAVE STUDIO
! Date and time: Fri Jun  7 21:43:28 2024
! Project name: Final_26GHz_linear.cst
! Parameters = {tand=0.003478; Connector_spacing=15.33; Coplanar_gap=0.425; Distance_inner=4.78238; Distance_outer=14.3471; L=2.6; L_pad=5; Length_strip_inner=24.3248; Length_strip_outer=27.8328; Pad_via_diameter=2.1; Pad_via_x_centre=3.75; Pad_via_z_centre=2.8; Patch_spacing=5.76524; Via_diameter=0.4; Via_spacing=0.8; W=2.6; W_PCB=70; W_line_50=1.15; W_line_small=0.1; W_pad=6; c=2.99792e+08; er=3.66; extra_distance_z=30; f=2.6e+10; k=3.99; lambda_0=11.5305; t_copper=0.012; t_substrate=0.508; theta_inner=11.3385; theta_outer=31.0293; x_triangle_inner=0.563778; x_triangle_outer=0.49272; z_Line=23.85; z_triangle_inner=0.113048; z_triangle_outer=0.296399}
! Header version: 2024
! Port assignment regex: !\s*Touchstone port\s*([0-9]+)\s*=\s*(CST MWS port|CST DES external port|CST DES block port)\s*(.+)\s* \(\"(.*)\"\)(\s*mode\s*([0-9]+))?.*
! Touchstone port assignment:
! Touchstone port 1 = CST MWS port 1 ("")
! Touchstone port 2 = CST MWS port 2 ("")
! Touchstone port 3 = CST MWS port 3 ("")
! Touchstone port 4 = CST MWS port 4 ("")
# GHz S MA R 50
20                     0.8376796        101.4645       0.01441892        143.8383      0.001689609        175.8229     0.0004941051       -157.6292
                      0.01340108        142.2782        0.8010266        41.88763       0.01909817       -76.47071       0.00311798         123.256
                     0.003116499        123.2682       0.01909836       -76.47064        0.8010104        41.88778       0.01340125        142.2851
                    0.0004941383       -157.6256      0.001687737        175.8188       0.01442192        143.8452        0.8378896        101.4799
20.025                 0.8351417        97.89587       0.01434199        139.3928      0.001968414        173.8645     0.0003607315       -158.9051
                      0.01356882         138.827        0.7980166        38.70475       0.01914533       -81.21653      0.003155255        118.6001
                     0.003153711        118.6144       0.01914552       -81.21646        0.7980005        38.70498       0.01356895        138.8339
                    0.0003607718          -158.9      0.001966699        173.8695       0.01434483        139.3982        0.8353508        97.91114
20.05                  0.8324539        94.33408       0.01423268        135.0207       0.00225405        170.6702     0.0002375062       -151.7083
                      0.01373755        135.2888        0.7949968        35.50389       0.01915161        -85.9752      0.003177327        114.0018
                     0.003175739        114.0184        0.0191518       -85.97517        0.7949808        35.50425       0.01373764        135.2956
                    0.0002375588       -151.7025      0.002252528        170.6802       0.01423532        135.0246        0.8326623        94.34926
20.075                 0.8296256        90.77715       0.01409294        130.7323      0.002540116        166.6546     0.0001613188       -121.7006
                      0.01390296        131.6599         0.791969        32.28433       0.01911706       -90.72657      0.003183815        109.4888
                     0.003182206         109.508       0.01911725       -90.72654        0.7919531        32.28482       0.01390301        131.6667
                    0.0001613808       -121.7059      0.002538811        166.6671       0.01409533        130.7348        0.8298333        90.79227
20.1                   0.8266655        87.22311       0.01392513        126.5379      0.002821802        162.0842     0.0002042503       -82.59378
                      0.01406057          127.94        0.7889363        29.04548       0.01904247       -95.45059      0.003174646        105.0909
                      0.00317304        105.1129       0.01904266       -95.45059        0.7889206        29.04611       0.01406059        127.9466
                    0.0002042838       -82.61088      0.002820726        162.0977       0.01392723        126.5391        0.8268727        87.23816
20.125                 0.8235818        83.67004       0.01373202        122.4477      0.003095247        157.1343     0.0003255735       -69.43237
                      0.01420592        124.1306        0.7859037        25.78683       0.01892942       -100.1274      0.003150085        100.8406
                     0.003148506        100.8656       0.01892961       -100.1274        0.7858884         25.7876       0.01420591        124.1373
                    0.0003255818       -69.44549      0.003094408         157.148       0.01373379        122.4476        0.8237886        83.68507
20.15                  0.8203826        80.11607       0.01351672        118.4717      0.003357207        151.9242     0.0004702814        -68.7393
                      0.01433464         120.236        0.7828779        22.50796       0.01878027        -104.737      0.003110762        96.77396
                     0.003109241        96.80213       0.01878046       -104.7371        0.7828629         22.5089       0.01433459        120.2426
                    0.0004702757       -68.74906      0.003356606        151.9375       0.01351813        118.4706         0.820589        80.13107
20.175                 0.8170759        76.55939       0.01328269        114.6195      0.003604879        146.5377     0.0006239672       -72.52886
                      0.01444253         116.262        0.7798672        19.20854       0.01859815       -109.2595      0.003057716        92.93106
                     0.003056282        92.96256       0.01859834       -109.2597        0.7798527        19.20966       0.01444245        116.2685
                    0.0006239519       -72.53657      0.003604518        146.5503       0.01328371        114.6174        0.8172819        76.57434
20.2                   0.8136692        72.99823       0.01303366        110.9001      0.003835816         141.036     0.0007825876       -78.26813
                      0.01452568        112.2161        0.7768819        15.88831         0.018387       -113.6752      0.002992431        89.35671
                     0.002991116        89.39172       0.01838719       -113.6754        0.7768678        15.88961       0.01452558        112.2224
                    0.0007825642       -78.27452      0.003835691        141.0475       0.01303428        110.8971         0.813875        73.01319
20.225                 0.8101706        69.43094       0.01277363        107.3215      0.004047881        135.4652     0.0009445732       -84.99729
                      0.01458054         108.107        0.7739338        12.54702        0.0181516       -117.9644      0.002916892        86.10063
                      0.00291573        86.13922       0.01815178       -117.9646        0.7739199        12.54852       0.01458039        108.1132
                    0.0009445425       -85.00275      0.004047987        135.4755       0.01277382         107.318        0.8103761         69.4459
20.25                  0.8065884        65.85594       0.01250673        103.8906       0.00423923        129.8617      0.001109117        -92.2813
                      0.01460393        103.9445         0.771036        9.184502       0.01789756       -122.1082      0.002833637        83.21694
                     0.002832662        83.25909       0.01789773       -122.1084        0.7710227        9.186205       0.01460373        103.9506
                     0.001109079       -92.28611      0.004239559        129.8706       0.01250648        103.8867        0.8067936        65.87089
20.275                 0.8029313         62.2717       0.01223724        100.6126      0.004408308        124.2553      0.001275686       -99.89463
                      0.01459314         99.7397        0.7682033        5.800562       0.01763132       -126.0886      0.002745813        80.76233
                     0.002745062        80.80785       0.01763148       -126.0889        0.7681906        5.802479        0.0145929        99.74561
                      0.00127564        -99.8989      0.004408848        124.2628       0.01223655        100.6087        0.8031363        62.28666
20.3                   0.7992088        58.67681       0.01196942         97.4904      0.004553858        118.6718      0.001443845       -107.7076
                      0.01454597        95.50427        0.7654516        2.395042       0.01736016       -129.8895      0.002657223        78.79222
                     0.002656728        78.84068       0.01736031       -129.8899        0.7654393        2.397185       0.01454567        95.51002
                     0.001443792       -107.7115      0.004554598        118.6776        0.0119683        97.48667        0.7994135        58.69178
20.325                 0.7954309         55.0699       0.01170748        94.52432      0.004674932        113.1342      0.001613181       -115.6398
                      0.01446074        91.25094        0.7627975       -1.032216       0.01709212       -133.4977      0.002572328        77.35378
                     0.002572118        77.40443       0.01709227       -133.4981        0.7627858       -1.029839       0.01446038        91.25653
                      0.00161312       -115.6432      0.004675857        113.1383       0.01170595        94.52115        0.7956352        55.08492
20.35                  0.7916088        51.44972       0.01145543         91.7115      0.004770908        107.6642      0.001783267       -123.6375
                      0.01433634         86.9934        0.7602585       -4.481375       0.01683593       -136.9036      0.002496186        76.47517
                     0.002496284        76.52686       0.01683607        -136.904        0.7602474       -4.478754       0.01433592        86.99881
                     0.001783197       -123.6407      0.004772001        107.6665       0.01145351         91.7092        0.7918126        51.46478
20.375                 0.7877544        47.81508       0.01121698        89.04542      0.004841513        102.2832       0.00195364       -131.6637
                      0.01417227        82.74638        0.7578525       -7.952604       0.01660081        -140.103       0.00243426        76.15126
                      0.00243468        76.20237       0.01660093       -140.1035         0.757842       -7.949729       0.01417176        82.75159
                     0.001953562       -131.6666      0.004842752        102.2835       0.01121472        89.04435        0.7879576        47.83019
20.4                   0.7838805        44.16487       0.01099544         86.5158       0.00488684         97.0128      0.002123795       -139.6914
                      0.01396861        78.52574        0.7555974       -11.44608       0.01639624       -143.0986      0.002392066         76.3286
                     0.002392802        76.37722       0.01639635       -143.0992        0.7555874       -11.44294       0.01396802        78.53077
                     0.002123708        -139.694      0.004888204        97.01108       0.01099287        86.51631        0.7840832        44.18005
20.425                 0.7800013        40.49803       0.01079356        84.10848      0.004907378        91.87571      0.002293179       -147.7002
                      0.01372612        74.34874        0.7535112       -14.96197       0.01623167        -145.901      0.002374626        76.89566
                     0.002375655        76.93972       0.01623176       -145.9016        0.7535017       -14.95855       0.01372543        74.35362
                     0.002293083       -147.7026      0.004908843        91.87179       0.01079074        84.11085        0.7802035        40.51331
20.45                  0.7761318         36.8136       0.01061346        81.80556      0.004904042        86.89611      0.002461192       -155.6745
                      0.01344621        70.23423        0.7516112       -18.50045       0.01611608       -148.5299      0.002385838        77.68589
                     0.002387116        77.72351       0.01611615       -148.5306        0.7516022       -18.49676       0.01344541        70.23898
                     0.002461088       -155.6767       0.00490558        86.88987       0.01061045        81.81008        0.7763331        36.82897
20.475                  0.772288        33.11065       0.01045656         79.5862      0.004878201        82.10012      0.002627192        -163.602
                      0.01313097        66.20296        0.7499142        -22.0617       0.01605751       -151.0142      0.002427895        78.49803
                     0.002429361        78.52797       0.01605756       -151.0149        0.7499056       -22.05772       0.01313005        66.20758
                     0.002627079       -163.6041      0.004879783        82.09143       0.01045343        79.59307        0.7724884        33.12614
20.5                   0.7684866        29.38833       0.01032351         77.4273      0.004831721        77.51619      0.002790498       -171.4728
                      0.01278322        62.27772        0.7484359       -25.64587       0.01606263       -153.3912       0.00250099        79.12966
                     0.002502573        79.15139       0.01606267        -153.392        0.7484277       -25.64158       0.01278218        62.28226
                     0.002790375       -171.4748      0.004833313        77.50492       0.01032034        77.43662        0.7686862        29.40395
20.525                 0.7647455        25.64584        0.0102142        75.30463      0.004766998        73.17502      0.002950401        -179.279
                      0.01240652        58.48381        0.7471911       -29.25306       0.01613626       -155.7048      0.002603391        79.41092
                     0.002605018        79.42479       0.01613627       -155.7056        0.7471832       -29.24847       0.01240535        58.48833
                      0.00295027       -179.2808      0.004768566        73.16105       0.01021105        75.31647        0.7649441        25.66161
20.55                  0.7610829        21.88244        0.0101278        73.19413      0.004687003        69.10938      0.003106174        172.9862
                      0.01200524        54.84909        0.7461928       -32.88337       0.01628103       -158.0027      0.002731859        79.22616
                     0.002733462        79.23311       0.01628101       -158.0035        0.7461853       -32.87846       0.01200393        54.85366
                     0.003106034        172.9845       0.00468851         69.0926       0.01012473        73.20845        0.7612804        21.89837
20.575                 0.7575178        18.09744       0.01006281        71.07309      0.004595318         65.3532       0.00325708        165.3284
                      0.01158456        51.40423        0.7454527       -36.53682        0.0164972       -160.3329      0.002882208        78.51798
                     0.002883729        78.51925       0.01649715       -160.3337        0.7454454       -36.53158        0.0115831        51.40895
                     0.003256932        165.3269      0.004596726        65.33356       0.01005989        71.08976        0.7577142        18.11356
20.6                   0.7540695        14.29021       0.01001723        68.92121      0.004496166        61.93995      0.003402388        157.7523
                      0.01115053        48.18253        0.7449804       -40.21335       0.01678264       -162.7402       0.00304985        77.27802
                     0.003051244        77.27495       0.01678258       -162.7411        0.7449732       -40.20779       0.01114893        48.18751
                     0.003402232         157.751      0.004497436        61.91749        0.0100145        68.94002        0.7542647        14.30653
20.625                 0.7507572        10.46019      0.009988622        66.72147      0.004394417        58.89977      0.003541383        150.2623
                      0.01071013        45.21936        0.7447838       -43.91284       0.01713303       -165.2635      0.003230204         75.5321
                     0.003231436        75.52592       0.01713294       -165.2644        0.7447769       -43.90692       0.01070838        45.22478
                     0.003541219        150.2611      0.004395507        58.87458      0.009986142        66.74218        0.7509513        10.47672
20.65                  0.7476005        6.606878      0.009974337        64.46061      0.004295538        56.25523      0.003673378         142.862
                       0.0102713        42.55108        0.7448688       -47.63507        0.0175421       -167.9336      0.003418949         73.3257
                     0.003419997        73.31747       0.01754198       -167.9345        0.7448618        -47.6288        0.0102694        42.55713
                     0.003673208        142.8609      0.004296412        56.22756      0.009972138        64.48293        0.7477935        6.623642
20.675                 0.7446186        2.729858      0.009971616        62.12931      0.004205499        54.01558      0.003797731        135.5549
                     0.009842881         40.2128        0.7452389       -51.37965       0.01800207       -170.7722      0.003612159        70.71292
                     0.003613007        70.70355       0.01800193        -170.773         0.745232       -51.37303       0.00984085        40.21974
                     0.003797554        135.5539      0.004206119        53.98588      0.009969717        62.15291        0.7448104        2.746864
20.7                   0.7418302       -1.171215      0.009977743        59.72209      0.004130543        52.16995      0.003913852        128.3441
                      0.00943463        38.23499        0.7458955       -55.14616       0.01850406       -173.7923      0.003806347        67.74922
                     0.003806989        67.73943        0.0185039       -173.7931        0.7458885       -55.13919      0.009432478         38.2431
                     0.003913671        128.3433      0.004130883        52.13886      0.009976159        59.74666        0.7420208       -1.153954
20.725                 0.7392533        -5.09659      0.009990173        57.23697       0.00407686         50.6808      0.004021221        121.2327
                     0.009056987        36.63835        0.7468379       -58.93399       0.01903851       -176.9987      0.003998471        64.48735
                     0.003998905        64.47766       0.01903832       -176.9995        0.7468306       -58.92666      0.009054736        36.64796
                     0.004021035         121.232      0.004076901        50.64916      0.009988908        57.26219         0.739443       -5.079061
20.75                  0.7369054       -9.046412       0.01000663        54.67494      0.004050129        49.47975      0.004119393        114.2236
                     0.008720769        35.42727         0.748063       -62.74239        0.0195955        179.6102       0.00418591        60.97529
                      0.00418614        60.96614        0.0195953        179.6095        0.7480556       -62.73467      0.008718446        35.43872
                     0.004119205         114.223      0.004049866        49.44857       0.01000568         54.7005        0.7370939       -9.028609
20.775                 0.7348026       -13.02072        0.0100252        52.03934       0.00405499        48.46856      0.004208015        107.3196
                      0.00843661        34.58247        0.7495656        -66.5705       0.02016509        176.0416      0.004366437        57.25567
                      0.00436647        57.24738       0.02016487        176.0409        0.7495579       -66.56243      0.008434256        34.59611
                     0.004207825        107.3191      0.004054433        48.43889       0.01002454        52.06499          0.73499       -13.00263
20.8                   0.7329598       -17.01942       0.01004435         49.3353      0.004094547        47.52675      0.004286829        100.5235
                     0.008214216        34.05463        0.7513382       -70.41728       0.02073755        172.3064      0.004538188        53.36581
                     0.004538035        53.35862       0.02073731        172.3056        0.7513301       -70.40885      0.008211875        34.07071
                     0.004286638        100.5232      0.004093724        47.49959       0.01004396         49.3608        0.7331463       -17.00105
20.825                 0.7313907       -21.04229       0.01006297          46.569      0.004170031        46.52528      0.004355684        93.83814
                     0.008061425         33.7617        0.7533713       -74.28156       0.02130351        168.4179      0.004699638        49.33813
                     0.004699311        49.33223       0.02130325        168.4172        0.7533629       -74.27272       0.00805915        33.78037
                     0.004355494         93.8379      0.004168984        46.50139       0.01006283        46.59417        0.7315761       -21.02363
20.85                  0.7301072       -25.08897       0.01008041         43.7472        0.0042807        45.34272      0.004414539        87.26608
                     0.007983289        33.59245        0.7556537       -78.16205        0.0218541        164.3915      0.004849572        45.20071
                     0.004849088        45.19621       0.02185383        164.3908        0.7556448       -78.15286      0.007981134        33.61369
                     0.004414351        87.26597      0.004279481         45.3226       0.01008049        43.77185        0.7302917       -25.07003
20.875                 0.7291197       -29.15894       0.01009644        40.87653       0.00442402        43.87921      0.004463468        80.80999
                     0.007981368        33.41735        0.7581718       -82.05728       0.02238106         160.243       0.00498707         40.9778
                     0.004986445        40.97482       0.02238078        160.2424        0.7581624       -82.04767      0.007979383        33.44099
                     0.004463284        80.81002      0.004422688        43.86303        0.0100967        40.90058        0.7293033        -29.1397
20.9                   0.7284366       -33.25151       0.01011123        37.96312      0.004596043        42.06444      0.004502663        74.47233
                     0.008053476        33.10476        0.7609107       -85.96566       0.02287681        155.9889      0.005111482        36.69042
                     0.005110734          36.689       0.02287651        155.9883        0.7609007        -85.9557      0.008051704        33.13048
                     0.004502485        74.47247      0.004594659        42.05207       0.01011164         37.9865        0.7286193       -33.23201
20.925                 0.7280641       -37.36586       0.01012531        35.01216      0.004791875        39.85898      0.004532433        68.25533
                     0.008193972        32.53768        0.7638539       -89.88555       0.02333443        151.6454      0.005222414        32.35673
                     0.005221563        32.35692       0.02333413        151.6448        0.7638433       -89.87519      0.008192443        32.56504
                     0.004532261        68.25558      0.004790495        39.85012       0.01012583        35.03482         0.728246       -37.34609
20.95                  0.7280067       -41.50097       0.01013954        32.02746      0.005006126        37.25031      0.004553194        62.16091
                     0.008394508        31.62619        0.7669833       -93.81513       0.02374781        147.2287      0.005319708        27.99244
                     0.005318776        27.99425       0.02374749        147.2281        0.7669721       -93.80442      0.008393244        31.65473
                     0.004553031        62.16126      0.005004801        37.24451       0.01014013        32.04942        0.7281881       -41.48094
20.975                 0.7282668       -45.65568       0.01015501        29.01119      0.005233275        34.24638      0.004565478        56.19053
                     0.008645012        30.31277        0.7702799       -97.75257       0.02411157        142.7544      0.005403427        23.61107
                     0.005402433        23.61451       0.02411124        142.7537        0.7702679       -97.74144      0.008644022        30.34208
                     0.004565325        56.19098      0.005232051        34.24314       0.01015564        29.03251        0.7284473       -45.63541
21                     0.7288443       -49.82865         0.010173         25.9637      0.005467936        30.86869      0.004569904        50.34513
                     0.008934677        28.57087        0.7737233       -101.6959       0.02442114        138.2378      0.005473834        19.22422
                       0.0054728        19.22925       0.02442081        138.2373        0.7737107       -101.6844      0.008933958        28.60059
                     0.004569763        50.34569       0.00546685        30.86752       0.01017363        25.98445        0.7290241       -49.80816
21.025                 0.7297371       -54.01838       0.01019489        22.88329      0.005705016        27.14649      0.004567184        44.62491
                     0.009252752        26.39916        0.7772928       -105.6431        0.0246728        133.6941      0.005531372        14.84169
                     0.005530318        14.84828       0.02467246        133.6935        0.7772796       -105.6312      0.009252297        26.42898
                     0.004567055        44.62554      0.005704099        27.14692        0.0101955        22.90359        0.7299162       -53.99767
21.05                  0.7309406       -58.22326        0.0102221        19.76626      0.005939808        23.11239       0.00455809        39.02916
                     0.009589117        23.81416        0.7809667       -109.5922       0.02486366        129.1378      0.005576643        10.47162
                     0.005575588        10.47971       0.02486331        129.1372        0.7809528         -109.58      0.009588913        23.84389
                     0.004557976        39.02986      0.005939085          23.114       0.01022266        19.78624        0.7311192       -58.20235
21.075                 0.7324486       -62.44147         0.010256        16.60692      0.006168032        18.79944      0.004543449        33.55611
                     0.009934608        20.84347        0.7847234       -113.5411       0.02499169        124.5835      0.005610382        6.120527
                     0.005609347        6.130043       0.02499133        124.5829        0.7847087       -113.5285      0.009934637        20.87297
                      0.00454335        33.55686      0.006167522        18.80185       0.01025649        16.62674        0.7326264       -62.42042
21.1                   0.7342521       -66.67118       0.01029782        13.39778      0.006385841        14.23934      0.004524109        28.20276
                      0.01028116        17.52022        0.7885405       -117.4878       0.02505578        120.0456      0.005633434        1.793402
                     0.005632435        1.804253       0.02505542         120.045        0.7885252       -117.4749       0.01028141         17.5494
                     0.004524028        28.20354      0.006385559        14.24225       0.01029824        13.41762        0.7344292       -66.64996
21.125                 0.7363404       -70.91036       0.01034864        10.12981      0.006589818        9.461507       0.00450092        22.96471
                      0.01062187        13.87931        0.7923966       -121.4302       0.02505573        115.5385      0.005646722       -2.506323
                     0.005645777       -2.494243       0.02505536        115.5379        0.7923805        -121.417        0.0106223        13.90813
                     0.004500856        22.96551      0.006589772        9.464642       0.01034898        10.14983        0.7365169       -70.88902
21.15                  0.7387008       -75.15695       0.01040927        6.792829      0.006776959        4.492684      0.004474703        17.83608
                       0.0109509        9.954945        0.7962697       -125.3664       0.02499226        111.0768      0.005651224       -6.776742
                     0.005650346       -6.763555        0.0249919        111.0762         0.796253       -125.3528       0.01095151        9.983403
                     0.004474657        17.83686      0.006777155        4.495808       0.01040952        6.813211        0.7388765       -75.13549
21.175                 0.7413184       -79.40875       0.01048025        3.375898      0.006944652      -0.6431218       0.00444622        12.80938
                      0.01126346        5.779286        0.8001389       -129.2944       0.02486709        106.6751      0.005647934       -11.01747
                     0.005647135       -11.00332       0.02486672        106.6745        0.8001217       -129.2805       0.01126422        5.807394
                     0.004446192        12.81013      0.006945092      -0.6402088       0.01048043        3.396807        0.7414934       -79.38723
21.2                   0.7441769       -83.66359       0.01056181      -0.1321684      0.007090667       -5.924487      0.004416147        7.875603
                      0.01155569        1.381785         0.803984       -133.2124       0.02468291        102.3486      0.005637837       -15.22963