! TOUCHSTONE file generated by CST MICROWAVE STUDIO
! Date and time: Sat Jun  8 01:11:37 2024
! Project name: Final_26GHz_linear.cst
! Parameters = {tand=0.0037; Connector_spacing=15.33; Coplanar_gap=0.425; Distance_inner=4.78238; Distance_outer=14.3471; L=2.6; L_pad=5; Length_strip_inner=24.3248; Length_strip_outer=27.8328; Pad_via_diameter=2.1; Pad_via_x_centre=3.75; Pad_via_z_centre=2.8; Patch_spacing=5.76524; Via_diameter=0.4; Via_spacing=0.8; W=2.6; W_PCB=70; W_line_50=1.15; W_line_small=0.106; W_pad=6; c=2.99792e+08; er=3.66; extra_distance_z=30; f=2.6e+10; k=3.99; lambda_0=11.5305; t_copper=0.012; t_substrate=0.508; theta_inner=11.3385; theta_outer=31.0293; x_triangle_inner=0.563778; x_triangle_outer=0.49272; z_Line=23.85; z_triangle_inner=0.113048; z_triangle_outer=0.296399}
! Header version: 2024
! Port assignment regex: !\s*Touchstone port\s*([0-9]+)\s*=\s*(CST MWS port|CST DES external port|CST DES block port)\s*(.+)\s* \(\"(.*)\"\)(\s*mode\s*([0-9]+))?.*
! Touchstone port assignment:
! Touchstone port 1 = CST MWS port 1 ("")
! Touchstone port 2 = CST MWS port 2 ("")
! Touchstone port 3 = CST MWS port 3 ("")
! Touchstone port 4 = CST MWS port 4 ("")
# GHz S MA R 50
20                     0.8345825        101.6268       0.01353854        143.1889      0.002546031        168.0667     0.0002136706       -42.31219
                      0.01365572         142.614         0.799028        41.90164       0.01886641       -78.08444      0.003058776        119.7285
                     0.003060408         119.689        0.0188666       -78.08419        0.7990157        41.90093       0.01365455        142.6075
                     0.000213766       -42.34966      0.002547207         168.071       0.01353416        143.1806        0.8342779        101.6077
20.025                 0.8322119        98.05383       0.01344943         139.329       0.00276947        163.8121     0.0003520938       -40.52343
                      0.01382835        139.0489        0.7958666        38.71353       0.01883598       -82.66636      0.003075985        115.4673
                     0.003077547        115.4254       0.01883616       -82.66613        0.7958545        38.71285       0.01382709        139.0421
                    0.0003521533       -40.54844      0.002770464        163.8138       0.01344504        139.3223         0.831909        98.03497
20.05                  0.8296799        94.48634       0.01334823        135.5513      0.002987214        159.2387     0.0004945276        -44.6028
                      0.01399742        135.4007        0.7926891        35.50917       0.01877325       -87.23598      0.003081125        111.2988
                     0.003082595        111.2546       0.01877343       -87.23578        0.7926772        35.50855       0.01399604        135.3938
                    0.0004945664       -44.62074      0.002988014        159.2387       0.01334388        135.5462        0.8293786        94.46773
20.075                 0.8269925        90.92247       0.01323695        131.8571      0.003196412        154.4332     0.0006376021        -50.6713
                      0.01415878        131.6688        0.7895011        32.28789       0.01867922       -91.77535      0.003074205        107.2475
                     0.003075562        107.2008       0.01867941       -91.77519        0.7894895        32.28732       0.01415727        131.6619
                    0.0006376264       -50.68494      0.003197011        154.4323       0.01323268        131.8535        0.8266926        90.90409
20.1                   0.8241557        87.36041       0.01311763        128.2468       0.00339457         149.462     0.0007803545       -57.63525
                      0.01430827        127.8551        0.7863099        29.04903       0.01855559        -96.2666      0.003055512        103.3397
                     0.003056735        103.2907       0.01855577       -96.26644        0.7862986        29.04853       0.01430663        127.8482
                    0.0007803677       -57.64598      0.003394965        149.4609       0.01311349        128.2448        0.8238573        87.34226
20.125                 0.8211757        83.79841       0.01299229        124.7198      0.003579497        144.3775      0.000922398       -65.07069
                      0.01444182        123.9633        0.7831245        25.79201       0.01840471       -100.6919      0.003025636        99.60458
                     0.003026704        99.55336        0.0184049       -100.6919        0.7831132        25.79159       0.01444005        123.9564
                    0.0009224024       -65.07931       0.00357969        144.3765       0.01298833        124.7193        0.8208786         83.7805
20.15                  0.8180586        80.23481       0.01286292        121.2745      0.003749287        139.2218      0.001063543       -72.77669
                      0.01455553        119.9985         0.779955         22.5163       0.01822966       -105.0338      0.002985493        96.07373
                     0.002986384        96.02035       0.01822984       -105.0338        0.7799439        22.51598       0.01455362        119.9918
                      0.00106354       -72.78372      0.003749284        139.2214       0.01285918        121.2754         0.817763        80.21717
20.175                 0.8148113        76.66805       0.01273136         117.908      0.003902301        134.0297      0.001203677       -80.64355
                      0.01464574        115.9678        0.7768127        19.22143        0.0180342       -109.2751      0.002936358        92.78141
                     0.002937054        92.72601       0.01803438       -109.2751        0.7768019        19.22122       0.01464369        115.9612
                     0.001203668       -80.64927       0.00390211        134.0302       0.01272788        117.9102        0.8145171        76.65064
20.2                   0.8114412         73.0966       0.01259932        114.6164      0.004037172        128.8312      0.001342719       -88.60433
                      0.01470908        111.8789        0.7737106        15.90691        0.0178228       -113.3992      0.002879893        89.76388
                     0.002880375        89.70669       0.01782297       -113.3992           0.7737        15.90683        0.0147069        111.8726
                     0.001342706       -88.60897      0.004036805        128.8329       0.01259612        114.6197        0.8111484        73.07945
20.225                 0.8079563        69.51905       0.01246828        111.3949      0.004152809         123.653      0.001480593       -96.61454
                      0.01474258        107.7409        0.7706629        12.57231       0.01760061       -117.3906      0.002818174        87.05844
                     0.002818426        86.99981       0.01760077       -117.3906        0.7706524        12.57236       0.01474027         107.735
                     0.001480576       -96.61831      0.004152281         123.656       0.01246539        111.3992        0.8076651        69.50215
20.25                  0.8043655        65.93403       0.01233951        108.2376      0.004248409        118.5193      0.001617209       -104.6424
                      0.01474363        103.5639        0.7676842        9.217184       0.01737347       -121.2353       0.00275371        84.70145
                     0.002753716        84.64187       0.01737363       -121.2354        0.7676739        9.217392       0.01474121        103.5583
                      0.00161719       -104.6454      0.004247739         118.524       0.01233695        108.2427        0.8040763        65.91738
20.275                 0.8006795        62.34025       0.01221398         105.138      0.004323477        113.4536      0.001752457        -112.664
                      0.01471012        99.35841        0.7647905        5.841101       0.01714785       -124.9216       0.00268944        82.72507
                     0.002689191        82.66516       0.01714799       -124.9218        0.7647804        5.841474       0.01470761        99.35335
                     0.001752437       -112.6663      0.004322684        113.4601       0.01221177        105.1435        0.8003919        62.32386
20.3                    0.796909        58.73648        0.0120924        102.0888      0.004377838         108.479      0.001886198       -120.6603
                      0.01464041        95.13619        0.7619981        2.443626       0.01693075        -128.441      0.002628712        81.15242
                     0.002628203        81.09303       0.01693088       -128.4412        0.7619882        2.444181       0.01463782        95.13163
                     0.001886177        -120.662      0.004376947        108.4875       0.01209054        102.0945        0.7966234        58.72034
20.325                 0.7930666        55.12158       0.01197515        99.08252      0.004411668        103.6187      0.002018261       -128.6159
                      0.01453338        90.90961        0.7593238      -0.9756699       0.01672961       -131.7887      0.002575197        79.99139
                     0.002574427         79.9335       0.01672972        -131.789         0.759314      -0.9749188       0.01453072        90.90561
                     0.002018241       -128.6171      0.004410707        103.6294       0.01197363        99.08835        0.7927831        55.10567
20.35                   0.789166        51.49442       0.01186235        96.11184      0.004425514        98.89721      0.002148444       -136.5179
                      0.01438843        86.69203        0.7567842       -4.417219       0.01655213       -134.9652       0.00253274        79.22731
                      0.00253172        79.17207       0.01655223       -134.9656        0.7567746       -4.416258       0.01438573        86.68861
                     0.002148425       -136.5186      0.004424514        98.91027       0.01186116        96.11745        0.7888848        51.47874
20.375                  0.785222        47.85393       0.01175383        93.16952      0.004420326         94.3399      0.002276509       -144.3554
                      0.01420556        82.49777        0.7543963        -7.88145       0.01640604        -137.977      0.002505135        78.81657
                     0.002503885        78.76519       0.01640612       -137.9773        0.7543869       -7.880264       0.01420284        82.49499
                     0.002276492       -144.3556      0.004419318        94.35548       0.01175294        93.17468         0.784943        47.83848
20.4                   0.7812506        44.19907       0.01164915        90.24897      0.004397482        89.97391      0.002402193        -152.119
                      0.01398532        78.34234        0.7521766       -11.36878       0.01629881       -140.8369      0.002495819        78.68334
                     0.002494365        78.63692       0.01629888       -140.8374        0.7521673       -11.36735       0.01398261        78.34023
                     0.002402179       -152.1188      0.004396504        89.99215       0.01164854        90.25344        0.7809741        44.18383
20.425                 0.7772688        40.52884       0.01154772        87.34439      0.004358831        85.82785      0.002525209       -159.8006
                      0.01372891        74.24254        0.7501407        -14.8796       0.01623735       -143.5652      0.002507532         78.7222
                     0.002505912        78.68161        0.0162374       -143.5657        0.7501317       -14.87792       0.01372622        74.24113
                       0.0025252          -159.8      0.004357921         85.8489       0.01154735        87.34796        0.7769949        40.51382
20.45                  0.7732949        36.84229       0.01144874        84.45105      0.004306719        81.93169      0.002645254       -167.3931
                      0.01343812        70.21668        0.7483041       -18.41428       0.01622763       -146.1885       0.00254202        78.80791
                     0.002540277        78.77364       0.01622766        -146.189        0.7482952       -18.41233       0.01343548        70.21601
                      0.00264525       -167.3922      0.004305919        81.95557       0.01144857        84.45356        0.7730237        36.82744
20.475                  0.769348        33.13844       0.01135135         81.5655      0.004244025         78.3158      0.002762017       -174.8905
                      0.01311542        66.28486        0.7466808       -21.97315       0.01627436       -148.7392      0.002599847        78.81093
                     0.002598025          78.783       0.01627436       -148.7397         0.746672       -21.97092       0.01311285        66.28495
                      0.00276202       -174.8893      0.004243378        78.34251       0.01135133        81.56681        0.7690793        33.12377
20.5                   0.7654475        29.41638       0.01125464        78.68562      0.004174178        75.00965      0.002875189        177.7125
                      0.01276393        62.46904        0.7452838       -25.55648        0.0163807       -151.2535      0.002680379        78.61397
                      0.00267852        78.59198       0.01638068        -151.254        0.7452753       -25.55396       0.01276146         62.4699
                     0.002875199         177.714      0.004173731        75.03907       0.01125472        78.68562        0.7651816        29.40187
20.525                 0.7616138         25.6752       0.01115772        75.81074      0.004101166        72.03942      0.002984469        170.4205
                       0.0123875        58.79331        0.7441249       -29.16449       0.01654805       -153.7697      0.002781934        78.12518
                     0.002780076        78.10842         0.016548       -153.7702        0.7441166       -29.16167       0.01238515        58.79495
                     0.002984487        170.4223      0.004100962        72.07127       0.01115786        75.80938        0.7613507        25.66083
20.55                  0.7578674        21.91403       0.01105981         72.9416      0.004029502        69.42439       0.00308958        163.2376
                       0.0119907         55.2839        0.7432143       -32.79728       0.01677595        -156.325      0.002902042        77.28429
                     0.002900213        77.27191       0.01677588       -156.3256         0.743206       -32.79415       0.01198848        55.28634
                     0.003089608        163.2396      0.004029582        69.45824       0.01105994        72.93886        0.7576072        21.89978
20.575                 0.7542293        18.13201       0.01096024        70.08031      0.003964134        67.17263      0.003190273        156.1671
                      0.01157885        51.96919        0.7425606       -36.45491       0.01706212       -158.9539       0.00303774        76.06216
                      0.00303596        76.05324       0.01706203       -158.9545        0.7425525       -36.45145        0.0115768        51.97241
                     0.003190311        156.1692       0.00396454        67.20778       0.01096033        70.07622        0.7539716        18.11787
20.6                   0.7507199        14.32834       0.01085858        67.23021      0.003910293        65.27544       0.00328634         149.212
                       0.0111581        48.87921        0.7421708       -40.13728       0.01740261       -161.6859      0.003185847        74.45551
                     0.003184129        74.44918       0.01740249       -161.6865        0.7421629       -40.13348       0.01115623        48.88317
                      0.00328639        149.2143      0.003911053        65.31103       0.01085858        67.22481        0.7504649        14.31428
20.625                 0.7473597        10.50224       0.01075463        64.39569      0.003873236         63.7024      0.003377621        142.3745
                       0.0107354         46.0449        0.7420498       -43.84419       0.01779199       -164.5443      0.003343178        72.47979
                     0.003341527        72.47533       0.01779185       -164.5448         0.742042       -43.84005       0.01073372        46.04953
                     0.003377684         142.377      0.003874369        63.73728        0.0107545        64.38912        0.7471072        10.48826
20.65                  0.7441688        6.653014       0.01064847        61.58201      0.003857904        62.39783      0.003464012        135.6568
                      0.01031849        43.49656        0.7422012        -47.5753       0.01822368       -167.5456      0.003506684        70.16232
                     0.003505099        70.15911       0.01822352        -167.546        0.7421935       -47.57082       0.01031702         43.5018
                     0.003464089        135.6593      0.003859414        62.43074       0.01064817        61.57439        0.7439187        6.639096
20.675                 0.7411662        2.780019        0.0105405        58.79494      0.003868522        61.28114      0.003545472          129.06
                      0.00991589        41.26155        0.7426262       -51.33015       0.01869022       -170.6997      0.003673544        67.53659
                      0.00367202        67.53421       0.01869004       -170.7002        0.7426186        -51.3253      0.009914646        41.26727
                     0.003545563        129.0627      0.003870395         61.3108          0.01054        58.78644        0.7409185        2.766148
20.7                   0.7383707         -1.1173       0.01043146        56.04049      0.003908197        60.25193      0.003622024        122.5852
                     0.009536767         39.3607        0.7433246       -55.10808        0.0191836       -174.0108      0.003841209        64.63837
                     0.003839737        64.63643       0.01918341       -174.0112         0.743317       -55.10287      0.009535745        39.36675
                      0.00362213        122.5879      0.003910403        60.27715       0.01043074        56.03132        0.7381252       -1.131135
20.725                 0.7357994       -5.039397       0.01032241        53.32445      0.003978616        59.19991      0.003693761        116.2325
                     0.009190698        37.80371        0.7442938       -58.90833        0.0196955       -177.4774       0.00400742        61.50285
                     0.004005989        61.50113       0.01969529       -177.4778        0.7442861       -58.90275      0.009189891        37.80987
                     0.003693884        116.2352      0.003981107        59.21978       0.01032145        53.31485        0.7355558       -5.053206
20.75                  0.7334687        -8.98661       0.01021477        50.65202      0.004079898        58.01741      0.003760846        110.0016
                     0.008887297        36.58366        0.7455296       -62.72993       0.02021751        178.9057      0.004170203        58.16335
                     0.004168803        58.16168       0.02021729        178.9053        0.7455219       -62.72396      0.008886697        36.58971
                     0.003760984        110.0043      0.004082613        58.03141       0.01021356        50.64226        0.7332268       -9.000403
20.775                 0.7313931       -12.95915       0.01011025        48.02729       0.00421065         56.6113      0.003823505        103.8914
                     0.008635691        35.67166        0.7470259       -66.57182       0.02074136         175.147      0.004327871         54.6504
                     0.004326488         54.6487       0.02074112        175.1467        0.7470181       -66.56553      0.008635277        35.67734
                     0.003823659        103.8941      0.004213525        56.61924       0.01010878        48.01762        0.7311529       -12.97293
20.8                   0.7295861       -16.95707       0.01001084        45.45268      0.004368194        54.91085      0.003882027        97.90008
                     0.008443822        35.01317        0.7487749       -70.43272       0.02125902        171.2574         0.004479        50.99147
                     0.004477623        50.98972       0.02125878        171.2571        0.7487669       -70.42604      0.008443568         35.0182
                     0.003882197        97.90267       0.00437116        54.91296       0.01000912        45.44341        0.7293474       -16.97084
20.825                 0.7280594       -20.98028      0.009918751        42.92848      0.004548896         52.8709      0.003936753        92.02486
                     0.008317697         34.5279         0.750767       -74.31129       0.02176286        167.2491      0.004622424        47.21103
                      0.00462104        47.20922        0.0217626        167.2488         0.750759       -74.30417      0.008317567        34.53205
                     0.003936939        92.02738      0.004551888        52.86767      0.009916802        42.91988         0.727822       -20.99404
20.85                  0.7268228       -25.02849      0.009836355        40.45228      0.004748514        50.47026      0.003988067         86.2621
                     0.008260699        34.11488        0.7529913       -78.20593       0.02224569        163.1355      0.004757212        43.33055
                     0.004755809        43.32876       0.02224543        163.1352         0.752983       -78.19845      0.008260649        34.11801
                     0.003988269        86.26449      0.004751472         50.4623      0.009834198        40.44462        0.7265864       -25.04225
20.875                 0.7258846       -29.10125      0.009766087        38.01853      0.004962513        47.70734      0.004036383         80.6071
                     0.008273148        33.66246        0.7554348         -82.115       0.02270088        158.9303      0.004882654        39.36889
                     0.004881224        39.36716       0.02270061          158.93        0.7554262       -82.10716      0.008273136        33.66449
                       0.0040366        80.60934      0.004965387        47.69533       0.00976375        38.01207        0.7256491       -29.11501
20.9                   0.7252509        -33.1979      0.009710351        35.61827       0.00518631        44.59477      0.004082127        75.05415
                     0.008352236        33.06114        0.7580839       -86.03673       0.02312236        154.6474      0.004998248        35.34238
                     0.004996782        35.34082       0.02312208        154.6472        0.7580749       -86.02851      0.008352218        33.06209
                     0.004082357        75.05623      0.005189056        44.57943      0.009707873        35.61322        0.7250162       -33.21165
20.925                 0.7249261       -37.31761      0.009671415        33.23891      0.005415445        41.15431      0.004125722        69.59649
                     0.008492375        32.21583        0.7609229        -89.9693       0.02350469        150.3008      0.005103682        31.26514
                     0.005102174        31.26384       0.02350441        150.3006        0.7609136        -89.9607      0.008492312        32.21581
                     0.004125963        69.59837      0.005418027        41.13628      0.009668836        33.23546         0.724692       -37.33133
20.95                  0.7249124        -41.4593      0.009651298        30.86448      0.005645693        37.41268      0.004167566        64.22633
                     0.008685848        31.05431        0.7639358       -93.91071        0.0238431        145.9042      0.005198815        27.14923
                     0.005197262        27.14831       0.02384282         145.904        0.7639261       -93.90174      0.008685704         31.0535
                     0.004167817          64.228      0.005648083        37.39255      0.009648664        30.86273        0.7246787       -41.47301
20.975                 0.7252103       -45.62176      0.009651665        28.47588      0.005873119        33.39855      0.004208015         58.9349
                     0.008923607        29.53044        0.7671052       -97.85896       0.02413352        141.4713      0.005283665        23.00485
                     0.005282063        23.00445       0.02413324        141.4711         0.767095       -97.84967      0.008923359        29.52904
                     0.004208275        58.93634      0.005875296        33.37683      0.009649025        28.47589         0.724977       -45.63542
21                      0.725818       -49.80353      0.009673731        26.05161      0.006094117         29.1405      0.004247362         53.7126
                     0.009196058        27.62265        0.7704127        -101.812       0.02437259        137.0155      0.005358383        18.84049
                     0.005356732        18.84072        0.0243723        137.0152        0.7704022       -101.8024      0.009195686        27.62088
                     0.004247629         53.7138      0.006096065        29.11762      0.009671133        26.05337        0.7255849       -49.81715
21.025                 0.7267318       -54.00302      0.009718191        23.56868      0.006305413        24.66583       0.00428582        48.54915
                     0.009493686        25.32951        0.7738399       -105.7678       0.02455768        132.5499      0.005423239        14.66303
                     0.005421543        14.66402        0.0245574        132.5497        0.7738289       -105.7578      0.009493182        25.32755
                     0.004286091         48.5501       0.00630712        24.64217      0.009715681        23.57211        0.7264989       -54.01659
21.05                  0.7279462       -58.21839      0.009785179        21.00362      0.006504066        19.99992      0.004323503        43.43376
                     0.009807519        22.66411        0.7773675       -109.7242       0.02468697        128.0878        0.0054786        10.47786
                     0.005476864        10.47973       0.02468669        128.0876        0.7773559       -109.7138      0.009806876        22.66217
                     0.004323775        43.43446      0.006505528        19.97577        0.0097828        21.00858        0.7277134       -58.23192
21.075                 0.7294535        -62.4478      0.009874249        18.33357      0.006687464        15.16594      0.004360414        38.35541
                      0.01012938        19.64891        0.7809759       -113.6791       0.02475939        123.6421      0.005524909        6.288956
                     0.005523141        6.291833       0.02475911        123.6419        0.7809638       -113.6684        0.0101286        19.64711
                     0.004360684        38.35586      0.006688677        15.14156      0.009872039        18.33988        0.7292208       -62.46122
21.1                   0.7312443        -66.6891      0.009984403        15.53736      0.006853313        10.18485      0.004396436        33.30304
                      0.01045205        16.31135        0.7846456       -117.6306       0.02477472         119.226      0.005562662         2.09898
                      0.00556087         2.10297       0.02477444        119.2258        0.7846329       -117.6195       0.01045114        16.30982
                     0.004396703        33.30325      0.006854277        10.16047      0.009982394        15.54479        0.7310117       -66.70246
21.125                 0.7333074       -70.94019       0.01011413        12.59627      0.006999625        5.075535      0.004431324        28.26586
                      0.01076929        12.68082         0.788357       -121.5765       0.02473357        114.8526      0.005592384       -2.090663
                     0.005590581       -2.085462        0.0247333        114.8523        0.7883439        -121.565       0.01076826        12.67965
                     0.004431585        28.26585      0.007000346        5.051328       0.01011235        12.60458        0.7330749       -70.95345
21.15                  0.7356299        -75.1987       0.01026151         9.49472      0.007124716      -0.1450301      0.004464707        23.23358
                      0.01107581        8.786571         0.792091       -125.5148        0.0246374         110.535      0.005614614       -6.279729
                     0.005612813       -6.273237       0.02463714        110.5347        0.7920774       -125.5031       0.01107468        8.785845
                      0.00446496        23.23337      0.007125198      -0.1689127       0.01025997        9.503661        0.7353977       -75.21186
21.175                 0.7381975       -79.46243       0.01042424         6.22057      0.007227188       -5.461541      0.004496091        18.19663
                      0.01136726        4.656495        0.7958288       -129.4439       0.02448857        106.2867      0.005629874       -10.46905
                      0.00562809        -10.4612       0.02448831        106.2864        0.7958146       -129.4318       0.01136603        4.656261
                     0.004496334        18.19623      0.007227443       -5.484968       0.01042296        6.229891        0.7379652       -79.47545
21.2                    0.740994       -83.72891       0.01059981        2.765204      0.007305932       -10.86012      0.004524864        13.14633
                      0.01164009       0.3164623         0.799552       -133.3617       0.02429032        102.1212      0.005638658       -14.66043