! TOUCHSTONE file generated by CST MICROWAVE STUDIO
! Date and time: Sat Jun  8 01:11:35 2024
! Project name: Final_26GHz_linear.cst
! Parameters = {tand=0.0037; Connector_spacing=15.33; Coplanar_gap=0.425; Distance_inner=4.78238; Distance_outer=14.3471; L=2.6; L_pad=5; Length_strip_inner=24.3248; Length_strip_outer=27.8328; Pad_via_diameter=2.1; Pad_via_x_centre=3.75; Pad_via_z_centre=2.8; Patch_spacing=5.76524; Via_diameter=0.4; Via_spacing=0.8; W=2.6; W_PCB=70; W_line_50=1.15; W_line_small=0.1; W_pad=6; c=2.99792e+08; er=3.66; extra_distance_z=30; f=2.6e+10; k=3.99; lambda_0=11.5305; t_copper=0.012; t_substrate=0.508; theta_inner=11.3385; theta_outer=31.0293; x_triangle_inner=0.563778; x_triangle_outer=0.49272; z_Line=23.85; z_triangle_inner=0.113048; z_triangle_outer=0.296399}
! Header version: 2024
! Port assignment regex: !\s*Touchstone port\s*([0-9]+)\s*=\s*(CST MWS port|CST DES external port|CST DES block port)\s*(.+)\s* \(\"(.*)\"\)(\s*mode\s*([0-9]+))?.*
! Touchstone port assignment:
! Touchstone port 1 = CST MWS port 1 ("")
! Touchstone port 2 = CST MWS port 2 ("")
! Touchstone port 3 = CST MWS port 3 ("")
! Touchstone port 4 = CST MWS port 4 ("")
# GHz S MA R 50
20                     0.8339358        101.6714       0.01317686        140.9559      0.002928013        176.4989     0.0002452395       -6.842535
                      0.01342063        142.7869        0.7992241        41.95384       0.01924338       -81.43482       0.00306893        119.6959
                     0.003067403        119.7078       0.01924367       -81.43507        0.7992105         41.9538       0.01342085         142.794
                     0.000245224       -6.859374      0.002927489         176.511       0.01317877        140.9557        0.8341448         101.687
20.025                   0.83158        98.10229       0.01302127        137.2483      0.003185404        170.4791     0.0003977159       -19.79869
                      0.01360123         139.265        0.7960294        38.75813        0.0190643       -86.19785      0.003078259        115.2498
                     0.003076674        115.2639       0.01906458       -86.19813        0.7960157        38.75814       0.01360139        139.2719
                    0.0003977063       -19.81008      0.003185084        170.4905       0.01302279         137.247        0.8317885        98.11775
20.05                  0.8290646        94.53828        0.0128601         133.667      0.003428719        164.3843     0.0005497666       -30.32828
                      0.01377967        135.6509        0.7927981        35.54665       0.01884805       -90.89582      0.003074236        110.9195
                     0.003072614        110.9362       0.01884833       -90.89612        0.7927844        35.54675        0.0137798        135.6578
                    0.0005497596       -30.33713      0.003428602        164.3948        0.0128612        133.6648        0.8292727        94.55362
20.075                 0.8263947        90.97749       0.01269683        130.2112      0.003655678        158.2523     0.0007005733       -40.02234
                      0.01395153        131.9441        0.7895376        32.31893       0.01859792       -95.50836       0.00305704        106.7317
                     0.003055403        106.7513       0.01859819       -95.50871        0.7895239        32.31913       0.01395161        131.9509
                    0.0007005673       -40.02972      0.003655764        158.2618        0.0126975        130.2084        0.8266024        90.99272
20.1                   0.8235756        87.41813       0.01253484         126.878      0.003864193        152.1117     0.0008498463        -49.3289
                      0.01411231        128.1462        0.7862573        29.07454       0.01831792       -100.0148      0.003027151        102.7158
                     0.003025526        102.7385       0.01831818       -100.0152        0.7862435        29.07485       0.01411235        128.1529
                    0.0008498401       -49.33531      0.003864478          152.12       0.01253506        126.8747        0.8237828        87.43325
20.125                 0.8206123        83.85845       0.01237734        123.6616      0.004052369        145.9852     0.0009974427       -58.41828
                      0.01425763        124.2613        0.7829682        25.81309       0.01801283       -104.3944      0.002985384        98.90457
                     0.002983799        98.93068       0.01801308       -104.3948        0.7829545        25.81352       0.01425763        124.2679
                    0.0009974354       -58.42398      0.004052847        145.9923       0.01237711        123.6583         0.820819        83.87348
20.15                    0.81751        80.29682       0.01222724        120.5542       0.00421853        139.8923      0.001143278         -67.366
                      0.01438328         120.295        0.7796831        22.53421       0.01768826       -108.6261      0.002932917        95.33416
                     0.002931403         95.3639       0.01768849       -108.6266        0.7796694        22.53478       0.01438324        120.3015
                     0.001143268       -67.37117      0.004219194        139.8981       0.01222658         120.551        0.8177164        80.31178
20.175                 0.8142749        76.73169       0.01208708        117.5448      0.004361225        133.8501      0.001287288       -76.20797
                      0.01448531        116.2548        0.7764164        19.23753       0.01735061       -112.6896      0.002871329        92.04425
                     0.002869919        92.07779       0.01735082       -112.6901        0.7764028        19.23826       0.01448523        116.2611
                     0.001287277       -76.21273      0.004362064        133.8545         0.012086        117.5421        0.8144808        76.74659
20.2                   0.8109136        73.16159       0.01195889        114.6204      0.004479258        127.8749      0.001429417       -84.96123
                       0.0145601        112.1491         0.773184         15.9227       0.01700712       -116.5653      0.002802636        89.07745
                     0.002801366        89.11494       0.01700732       -116.5658        0.7731705         15.9236       0.01455998        112.1554
                     0.001429401       -84.96564      0.004480264        127.8777       0.01195742        114.6185        0.8111189        73.17643
20.225                 0.8074334        69.58513       0.01184414        111.7658      0.004571709        121.9827      0.001569593       -93.63293
                      0.01460441        107.9876         0.770003        12.58932       0.01666586       -120.2358      0.002729329         86.4779
                     0.002728233        86.51928       0.01666605       -120.2364        0.7699897        12.59041       0.01460425        107.9937
                     0.001569573       -93.63706      0.004572866         121.984       0.01184233        111.7651        0.8076382        69.59993
20.25                  0.8038429        66.00099        0.0117437        108.9645      0.004637952        116.1905      0.001707726       -102.2248
                      0.01461545        103.7808        0.7668914        9.236979       0.01633564       -123.6871      0.002654391        84.28842
                     0.002653508        84.33352        0.0163358       -123.6877        0.7668784        9.238272       0.01461523        103.7868
                     0.001707701       -102.2287      0.004639246        116.1901       0.01174158        108.9652         0.804047        66.01578
20.275                 0.8001519        62.40798       0.01165775         106.199      0.004677685        110.5163      0.001843699       -110.7353
                      0.01459089        99.54019         0.763868        5.865235       0.01602592       -126.9096       0.00258131        82.54599
                     0.002580674        82.59435       0.01602606       -126.9103        0.7638553         5.86674       0.01459062        99.54603
                     0.001843668        -110.739      0.004679099         110.514       0.01165538        106.2012        0.8003555        62.42273
20.3                   0.7963715         58.8049       0.01158585        103.4516      0.004690959        104.9804       0.00197736       -119.1613
                      0.01452893        95.27782         0.760952        2.473605        0.0157466       -129.9006       0.00251402        81.27468
                     0.002513663        81.32556       0.01574673       -129.9013        0.7609396         2.47534       0.01452859        95.28352
                     0.001977323       -119.1648      0.004692473        104.9761       0.01158329        103.4555        0.7965743        58.81966
20.325                 0.7925137        55.19068       0.01152691        100.7055      0.004678209        99.60537      0.002108522       -127.4985
                      0.01442829        91.00674        0.7581628      -0.9384181       0.01550776       -132.6659      0.002456796        80.47673
                     0.002456742        80.52892       0.01550786       -132.6666        0.7581508      -0.9364417       0.01442789        91.01228
                     0.002108479       -127.5018      0.004679799        99.59898       0.01152421        100.7113        0.7927157        55.20546
20.35                  0.7885926        51.56428        0.0114793        97.94555      0.004640291        94.41767      0.002236965       -135.7421
                      0.01428827        86.74082        0.7555196       -4.371378       0.01531923       -135.2212      0.002414024        80.12241
                     0.002414286        80.17436       0.01531931        -135.222        0.7555079       -4.369148        0.0142878        86.74619
                     0.002236914       -135.7452      0.004641935          94.409       0.01147653        97.95326        0.7887936        51.57908
20.375                  0.784623        47.92467       0.01144091        95.15833      0.004578527        89.44768      0.002362433       -143.8871
                      0.01410877        82.49493        0.7530412       -7.825841       0.01519012       -137.5936      0.002389878        80.14222
                     0.002390454        80.19211       0.01519018       -137.5944          0.75303       -7.823345       0.01410821        82.50016
                     0.002362374       -143.8901      0.004580197        89.43653       0.01143813        95.16796         0.784823        47.93953
20.4                   0.7806214         44.2709       0.01140928        92.33326      0.004494765        84.73086      0.002484644       -151.9288
                      0.01389026        78.28512        0.7507458       -11.30238       0.01512833       -139.8211      0.002387899        80.42541
                      0.00238877        80.47136       0.01512837        -139.822        0.7507351       -11.29961       0.01388962         78.2902
                     0.002484576       -151.9317       0.00449643        84.71706       0.01140654        92.34476        0.7808204        44.28583
20.425                 0.7766054        40.60204       0.01138168        89.46264      0.004391437        80.30839      0.002603293       -159.8623
                      0.01363389        74.12884        0.7486507       -14.80158       0.01513996       -141.9513      0.002410573        80.82816
                     0.002411702        80.86847       0.01513997       -141.9522        0.7486405       -14.79852       0.01363315        74.13377
                     0.002603216        -159.865      0.004393065         80.2917       0.01137905        89.47587        0.7768033        40.61705
20.45                  0.7725937        36.91716        0.0113553        86.54176      0.004271644        76.22757      0.002718064       -167.6829
                      0.01334142        70.04504        0.7467719         -18.324       0.01522885       -144.0384      0.002459022        81.19187
                     0.002460357        81.22536       0.01522884       -144.0392        0.7467622       -18.32064       0.01334058        70.04987
                     0.002717979       -167.6855        0.0042732        76.20778        0.0113528        86.55663        0.7727907        36.93227
20.475                 0.7686061        33.21537       0.01132729        83.56908      0.004139251        72.54175      0.002828638       -175.3866
                      0.01301531        66.05459         0.745124       -21.87018       0.01539635        -146.139      0.002532893        81.36634
                     0.002534372        81.39243       0.01539632       -146.1398        0.7451149       -21.86651       0.01301435        66.05932
                     0.002828543        -175.389      0.004140695        72.51869       0.01132498        83.58537        0.7688018         33.2306
20.5                   0.7646631        29.49577       0.01129494        80.54587      0.003998983        69.30901      0.002934702        177.0309
                      0.01265869         62.1804        0.7437204       -25.44059       0.01564114       -148.3078      0.002630496        81.22999
                     0.002632055        81.24876       0.01564109       -148.3086        0.7437117       -25.43661       0.01265761        62.18509
                     0.002934599        177.0286      0.004000271        69.28257       0.01129284        80.56342        0.7648576        29.51114
20.525                 0.7607856         25.7575       0.01125575        77.47615      0.003856517        66.58877      0.003035965        169.5732
                      0.01227545        58.44774        0.7425723       -29.03567       0.01595943       -150.5933      0.002749118        80.70134
                     0.002750694        80.71337       0.01595936       -150.5941        0.7425641       -29.03136       0.01227424        58.45245
                     0.003035852         169.571      0.003857607        66.55894        0.0112539        77.49473        0.7609789        25.77304
20.55                  0.7569952         21.9997       0.01120754         74.3664      0.003718545        64.43512      0.003132164        162.2438
                      0.01187021        54.88439        0.7416894       -32.65571       0.01634522        -153.035      0.002885406         79.7398
                     0.002886942        79.74604       0.01634513       -153.0358        0.7416817       -32.65108       0.01186887        54.88917
                     0.003132042        162.2418      0.003719392        64.40209       0.01120594         74.3858        0.7571874        22.01542
20.575                 0.7533135        18.22154        0.0111485        71.22516      0.003592725        62.88572      0.003223083         155.046
                      0.01144841        51.52058        0.7410794       -36.30097       0.01679075       -155.6615      0.003035725        78.33925
                     0.003037176        78.34077       0.01679064       -155.6623        0.7410721         -36.296       0.01144694        51.52554
                     0.003222952        155.0441      0.003593285        62.84995       0.01114715        71.24516        0.7535047        18.23745
20.6                   0.7497621        14.42219       0.01107726        68.06286      0.003487462        61.94587      0.003308556        147.9826
                      0.01101634        48.38877        0.7407477       -39.97152       0.01728699       -158.4905      0.003196439        76.51832
                     0.003197766        76.51616       0.01728687       -158.4912        0.7407408       -39.96621       0.01101472        48.39404
                     0.003308416        147.9808      0.003487699        61.90823       0.01107618        68.08326        0.7499521        14.43831
20.625                 0.7463622        10.60088       0.01099296        64.89145      0.003411411        61.57004      0.003388484        141.0561
                      0.01058112        45.52291        0.7406981       -43.66733       0.01782415       -161.5295      0.003364094         74.3107
                     0.003365268        74.30586       0.01782401       -161.5302        0.7406916       -43.66168       0.01057937        45.52864
                     0.003388336        141.0545      0.003411302        61.53179       0.01099213        64.91203         0.746551        10.61723
20.65                  0.7431345        6.756879       0.01089528        61.72412      0.003372672        61.64726       0.00346284        134.2689
                      0.01015077        42.95696        0.7409321       -47.38819       0.01839201       -164.7777      0.003535518         71.7576
                      0.00353652        71.75091       0.01839186       -164.7784        0.7409258       -47.38217       0.01014889        42.96337
                     0.003462685        134.2675      0.003372209        61.60999       0.01089469        61.74471        0.7433224        6.773478
20.675                 0.7400991        2.889515       0.01078443        58.57498      0.003377729        62.00004      0.003531681        127.6228
                      0.00973416        40.72247        0.7414491       -51.13373       0.01898033        -168.228      0.003707877        68.90239
                     0.003708692        68.89462       0.01898016       -168.2286         0.741443       -51.12736      0.009732152        40.72978
                     0.003531519        127.6215      0.003376931        61.96544       0.01078406        58.59539         0.740286        2.906371
20.7                   0.7372749       -1.001808       0.01066124        55.45877      0.003430451        62.40442      0.003595144        121.1191
                     0.009340899        38.84476        0.7422465        -54.9034       0.01957908       -171.8682      0.003878679        65.78742
                     0.003879299        65.77913       0.01957891       -171.8688        0.7422406       -54.89667       0.00933878        38.85326
                     0.003594977         121.118       0.00342936        62.37398       0.01066106        55.47884        0.7374608      -0.9846867
20.725                 0.7346799       -4.917597       0.01052708        52.39046      0.003531489        62.62824      0.003653461        114.7585
                     0.008981115        37.33779        0.7433199       -58.69648       0.02017865       -175.6832      0.004045776        62.45203
                       0.0040462        62.44374       0.02017846       -175.6838        0.7433142       -58.68937      0.008978908         37.3478
                      0.00365329        114.7576      0.003530165        62.60298       0.01052708        52.41005        0.7348649       -4.900202
20.75                  0.7323305       -8.858248       0.01038395        49.38482      0.003678323        62.47301      0.003706949        108.5412
                     0.008665081        36.19777        0.7446631       -62.51203       0.02076992        -179.656      0.004207343        58.93197
                     0.004207573        58.92409       0.02076972       -179.6566        0.7446573       -62.50456      0.008662815         36.2096
                     0.003706774        108.5404      0.003676838        62.45334       0.01038407        49.40383        0.7325147       -8.840571
20.775                 0.7302418       -12.82403       0.01023436        46.45591      0.003865911        61.80189      0.003756011        102.4662
                     0.008402639        35.39662        0.7462675       -66.34898       0.02134438         176.231      0.004361861        55.25906
                     0.004361904        55.25187       0.02134417        176.2305        0.7462616       -66.34116       0.00840035        35.41056
                     0.003755834        102.4656       0.00386434         61.7876       0.01023458        46.47425        0.7304253       -12.80607
20.8                   0.7284274       -16.81507       0.01008139        43.61641      0.004087637          60.546      0.003801127        96.53177
                     0.008202429        34.87719        0.7481234       -70.20609        0.0218942        171.9961      0.004508102        51.46127
                     0.004507966        51.45506       0.02189398        171.9955        0.7481173       -70.19788      0.008200161        34.89347
                      0.00380095        96.53136      0.004086049        60.53654       0.01008167        43.63402        0.7286102       -16.79682
20.825                 0.7268987       -20.83133      0.009928575        40.87678      0.004336216        58.69374       0.00384285          90.735
                     0.008071037        34.55252        0.7502192       -74.08187       0.02241221        167.6568      0.004645103         47.5631
                       0.0046448        47.55806       0.02241198        167.6563        0.7502128       -74.07327      0.008068839        34.57125
                     0.003842673        90.73475      0.004334674        58.68836      0.009928877        40.89366        0.7270808        -20.8128
20.85                  0.7256659        -24.8726      0.009779865        38.24439      0.004604369        56.27277      0.003881778        85.07155
                     0.008012198        34.31131         0.752542       -77.97473       0.02289198        163.2305      0.004772152        43.58584
                     0.004771698        43.58214       0.02289174          163.23        0.7525351       -77.96577      0.008010116        34.33245
                     0.003881605        85.07148      0.004602922        56.27067      0.009780147        38.26056        0.7258473       -24.85379
20.875                 0.7247365       -28.93849        0.0096395        35.72245      0.004885223        53.33271       0.00391855        79.53574
                     0.008026268        34.02955        0.7550774       -81.88293       0.02332777        158.7338      0.004888771        39.54793
                     0.004888183        39.54566       0.02332753        158.7332        0.7550701       -81.87362      0.008024348        34.05292
                     0.003918382        79.53585      0.004883913        53.33312      0.009639728        35.73799        0.7249176        -28.9194
20.9                   0.7241169       -33.02841      0.009511896        33.30895      0.005172509        49.93204      0.003953815        74.12034
                     0.008110149        33.58577        0.7578099        -85.8046       0.02371462        154.1826      0.004994698        35.46519
                     0.004993993        35.46446       0.02371437         154.182        0.7578022       -85.79494       0.00810843        33.61105
                     0.003953654        74.12061       0.00517137        49.93431      0.009512037        33.32398        0.7242972       -33.00906
20.925                 0.7238107       -37.14156      0.009401472         30.9957      0.005460615        46.13001      0.003988211        68.81647
                     0.008257696        32.87555        0.7607232       -89.73778       0.02404829        149.5923      0.005089864        31.35119
                     0.005089061        31.35205       0.02404803        149.5917        0.7607148       -89.72773      0.008256203        32.90235
                     0.003988059         68.8169      0.005459671        46.13359      0.009401498         31.0104        0.7239904       -37.12195
20.95                  0.7238197       -41.27694      0.009312461        28.76758      0.005744563        41.98206      0.004022336        63.61377
                     0.008460466        31.82121        0.7637998        -93.6804       0.02432532        144.9775      0.005174381        27.21734
                     0.005173504        27.21981       0.02432505        144.9769        0.7637907       -93.66996       0.00845922        31.84913
                     0.004022193        63.61434      0.005743833         41.9865      0.009312352        28.78217         0.723999       -41.25708
20.975                 0.7241439       -45.43335      0.009248703         26.6024      0.006019968        37.53791      0.004056721        58.50039
                     0.008708654        30.37511        0.7670214       -97.63029         0.024543        140.3527      0.005248521        23.07312
                     0.005247587        23.07721       0.02454273        140.3521        0.7670116       -97.61949      0.008707659        30.40377
                     0.004056589        58.50108      0.006019466        37.54284      0.009248447        26.61713        0.7243226       -45.41327
21                     0.7247809       -49.60938      0.009213433         24.4712      0.006282978        32.84101      0.004091802        53.46319
                     0.008991954        28.51727        0.7703696       -101.5853       0.02469948        135.7317      0.005312688        18.92618
                      0.00531172        18.93187       0.02469919        135.7311        0.7703588       -101.5741      0.008991211        28.54635
                     0.004091684        53.46397      0.006282713        32.84612      0.009213022        24.48636        0.7249591       -49.58908
21.025                 0.7257265        -53.8035      0.009209085        22.33944      0.006530221        27.92882      0.004127897        48.48806
                     0.009300256        26.24976        0.7738253       -105.5431       0.02479365        131.1283        0.0053674        14.78247
                     0.005366419         14.7897       0.02479336        131.1277        0.7738137       -105.5316      0.009299758          26.279
                     0.004127793        48.48891      0.006530198        27.93388      0.009208526         22.3553        0.7259041         -53.783
21.05                  0.7269743       -58.01385      0.009237152        20.16878      0.006758763        22.83342       0.00416518        43.56021
                     0.009624114        23.59004        0.7773691       -109.5016       0.02482528        126.5562      0.005413266        10.64625
                     0.005412291        10.65498       0.02482499        126.5556        0.7773567       -109.4898      0.009623849        23.61926
                     0.004165092         43.5611      0.006758984        22.83823      0.009236458        20.18562        0.7271513       -57.99319
21.075                 0.7285161       -62.23858      0.009298085        17.91944      0.006966068        17.58223      0.004203667        38.66459
                     0.009955022        20.56491        0.7809819       -113.4586       0.02479499        122.0291      0.005450954        6.520226
                     0.005450004        6.530351       0.02479469        122.0285        0.7809686       -113.4464      0.009954974        20.59398
                     0.004203596         38.6655      0.006966534        17.58663      0.009297277         17.9375        0.7286925       -62.21778
21.1                    0.730342       -66.47559      0.009391284         15.5527      0.007149976        12.19875      0.004243205         33.7863
                      0.01028553         17.2058        0.7846446       -117.4119       0.02470427        117.5607      0.005481168        2.405564
                     0.005480261        2.416982       0.02470396          117.56        0.7846304       -117.3993       0.01028568        17.23464
                     0.004243151         33.7872      0.007150684         12.2026      0.009390392        15.57216        0.7305176       -66.45464
21.125                   0.73244       -70.72274      0.009515157        13.03323      0.007308675         6.70321      0.004283463        28.91102
                      0.01060925        13.54549        0.7883383       -121.3592        0.0245555        113.1649       0.00550462       -1.698023
                      0.00550377       -1.685437       0.02455518        113.1643        0.7883231       -121.3463       0.01060959        13.57407
                     0.004283427        28.91186      0.007309619        6.706394      0.009514216        13.05422        0.7326149       -70.70164
21.15                  0.7347968       -74.97765      0.009667245        10.33097      0.007440682         1.11316      0.004323943        24.02534
                      0.01092084        9.615985        0.7920447       -125.2987       0.02435198         108.856      0.005522001       -5.792192
                     0.005521223       -5.778579       0.02435167        108.8553        0.7920286       -125.2854       0.01092135        9.644284
                     0.004323924        24.02612      0.007441855        1.115573      0.009666292        10.35356        0.7349708        -74.9565
21.175                 0.7373973       -79.23808      0.009844388         7.42226      0.007544837       -4.556011       0.00436398        19.11717
                      0.01121592        5.447347         0.795746       -129.2283       0.02409796        104.6482       0.00553396       -9.879868
                     0.005533264       -9.865381       0.02409764        104.6476        0.7957291       -129.2147       0.01121658        5.475378
                     0.004363978        19.11785      0.007546229       -4.554463      0.009843461         7.44647        0.7375704        -79.2168
21.2                    0.740225        -83.5015       0.01004292        4.290296       0.00762028       -10.29065      0.004402763        14.17593
                      0.01149099        1.067137        0.7994253       -133.1462        0.0237986        100.5563      0.005541074        -13.9651