! TOUCHSTONE file generated by CST MICROWAVE STUDIO
! Date and time: Fri Jun  7 19:41:16 2024
! Project name: Final_26GHz_linear.cst
! Parameters = {Connector_spacing=15.33; Coplanar_gap=0.425; Distance_inner=4.78238; Distance_outer=14.3471; L=2.444; L_pad=5; Length_strip_inner=24.3248; Length_strip_outer=27.8328; Pad_via_diameter=2.1; Pad_via_x_centre=3.75; Pad_via_z_centre=2.8; Patch_spacing=5.76524; Via_diameter=0.4; Via_spacing=0.8; W=2.444; W_PCB=70; W_line_50=1.15; W_line_small=0.1; W_pad=6; c=2.99792e+08; er=3.8796; extra_distance_z=30; f=2.6e+10; k=3.99; lambda_0=11.5305; t_copper=0.012; t_substrate=0.508; theta_inner=11.3385; theta_outer=31.0293; x_triangle_inner=0.563778; x_triangle_outer=0.49272; z_Line=23.85; z_triangle_inner=0.113048; z_triangle_outer=0.296399}
! Header version: 2024
! Port assignment regex: !\s*Touchstone port\s*([0-9]+)\s*=\s*(CST MWS port|CST DES external port|CST DES block port)\s*(.+)\s* \(\"(.*)\"\)(\s*mode\s*([0-9]+))?.*
! Touchstone port assignment:
! Touchstone port 1 = CST MWS port 1 ("")
! Touchstone port 2 = CST MWS port 2 ("")
! Touchstone port 3 = CST MWS port 3 ("")
! Touchstone port 4 = CST MWS port 4 ("")
# GHz S MA R 50
20                     0.7588792        26.95595       0.01056159        70.09069         0.003248         98.5902      0.002181726        -170.179
                      0.01061445         61.4865        0.7445125       -29.57005       0.01559708       -143.7208       0.00290353        82.95515
                     0.002904198        82.99565       0.01559725       -143.7219        0.7444961       -29.56124       0.01061407        61.49664
                     0.002181642        -170.182      0.003247711        98.56203       0.01056208         70.1084        0.7590825        26.97177
20.025                 0.7551219        23.02635        0.0101433        65.81469      0.003220682        97.27082       0.00231033       -176.8572
                      0.01023045        58.06761        0.7432944       -33.39926       0.01615651       -146.5617       0.00284852        80.71106
                     0.002849389        80.75037       0.01615666       -146.5629        0.7432774       -33.39048          0.01023        58.07822
                     0.002310231       -176.8598       0.00322024        97.24326       0.01014394        65.83231        0.7553247        23.04244
20.05                  0.7515383        19.06876      0.009690934        61.74991      0.003216214        96.30439      0.002435916        176.5112
                      0.00984405        54.81829        0.7423431       -37.24347       0.01676438       -149.7042      0.002793311        78.96297
                     0.002794384        79.00008        0.0167645       -149.7055        0.7423252       -37.23474      0.009843532        54.82945
                     0.002435805         176.509      0.003215619        96.27823      0.009691703        61.76724        0.7517406        19.08513
20.075                 0.7481445        15.08211      0.009211083        57.95505      0.003240144        95.57172      0.002558021        169.9414
                     0.009458197         51.7522        0.7416832       -41.10198       0.01740512       -153.1413      0.002744656          77.741
                     0.002745923        77.77472        0.0174052       -153.1426        0.7416647       -41.09328      0.009457632        51.76395
                     0.002557899        169.9396      0.003239405        95.54768      0.009211959        57.97189        0.7483464        15.09877
20.1                   0.7449553        11.06556      0.008711799        54.49933      0.003296415         94.9208      0.002676282        163.4454
                     0.009075827        48.88481        0.7413368        -44.9742        0.0180634       -156.8552      0.002709923        77.03235
                      0.00271136         77.0614       0.01806345       -156.8565        0.7413176       -44.96553      0.009075229        48.89724
                     0.002676152         163.444      0.003295552        94.89951      0.008712752        54.51545         0.745157        11.08252
20.125                 0.7419841        7.018523      0.008202778        51.46354      0.003386869        94.18739       0.00279045        157.0329
                     0.008699951        46.23387        0.7413227       -48.85969       0.01872464       -160.8213      0.002696518        76.76561
                     0.002698083        76.78879       0.01872465       -160.8226        0.7413027       -48.85106       0.00869933        46.24704
                     0.002790316        157.0318      0.003385911        94.16925      0.008203771        51.47868        0.7421859        7.035783
20.15                  0.7392434        2.940673      0.007695601        48.93955      0.003511088        93.21965      0.002900393        150.7112
                     0.008333768        43.81922        0.7416557        -52.7581       0.01937523        -165.011       0.00271105        76.80413
                     0.002712689        76.82062       0.01937521       -165.0123        0.7416351       -52.74949      0.008333136        43.83319
                     0.002900255        150.7105       0.00351007        93.20481      0.007696592         48.9535        0.7394452        2.958228
20.175                 0.7367441       -1.168019      0.007203973        47.02663      0.003666588        91.89862      0.003006096        144.4859
                     0.007980793        41.66251        0.7423463       -56.66913       0.02000278       -169.3945      0.002758421        76.95643
                     0.002760067        76.96604       0.02000272       -169.3958        0.7423252       -56.66055      0.007980159        41.67735
                     0.003005957        144.4854      0.003665549        91.88694      0.007204912        47.03917        0.7369459       -1.150176
20.2                   0.7344965       -5.307274      0.006743868        45.82126      0.003849298        90.14804      0.003107662        138.3602
                     0.007644995        39.78594        0.7434007       -60.59253       0.02059615       -173.9419      0.002841078        77.00593
                     0.002842662        77.00912       0.02059606       -173.9432         0.743379       -60.58396       0.00764437        39.80171
                     0.003107526          138.36      0.003848272        90.13921      0.006744704        45.83224        0.7346984       -5.289152
20.225                 0.7325099       -9.476499      0.006333375        45.39693      0.004054121        87.93379      0.003205304        132.3355
                     0.007330899         38.2102        0.7448199       -64.52799       0.02114552       -178.6243      0.002958722        76.75049
                     0.002960183         76.7483        0.0211454       -178.6255        0.7447978       -64.51945      0.007330294          38.227
                     0.003205173        132.3356      0.004053141        87.92737       0.00633405        45.40639         0.732712       -9.458111
20.25                  0.7307932       -13.67479       0.00599189        45.77153      0.004275478        85.25571      0.003299331        126.4114
                     0.007043646        36.95093        0.7466003       -68.47516       0.02164241        176.5859      0.003108549        76.03581
                     0.003109837        76.02962       0.02164226        176.5848        0.7465777       -68.46665      0.007043071        36.96884
                     0.003299207        126.4117      0.004274572        85.25126      0.005992357        45.77973        0.7309953       -13.65615
20.275                 0.7293543       -17.90093      0.005738311        46.86695      0.004507707        82.13732      0.003390131        120.5851
                     0.006788963        36.01384        0.7487334       -72.43364       0.02207969        171.7148      0.003285894        74.77066
                     0.003286974        74.76192        0.0220795        171.7137        0.7487104       -72.42514      0.006788431        36.03292
                     0.003390016        120.5856      0.004506898        82.13436      0.005738531        46.87449        0.7295564       -17.88205
20.3                    0.728201       -22.15342       0.00558808        48.47906      0.004745345        78.61585       0.00347815        114.8523
                     0.006572992        35.38852        0.7512055       -76.40284       0.02245153        166.7869       0.00348499        72.92372
                     0.003485843         72.9137       0.02245132        166.7858        0.7511823       -76.39437      0.006572518        35.40882
                     0.003478046        114.8529      0.004744652          78.614      0.005588039        48.48687         0.728403       -22.13432
20.325                 0.7273404       -26.43049      0.005549753        50.28667      0.004983293        74.73486       0.00356386        109.2062
                      0.00640196        35.04195        0.7539991       -80.38205       0.02275349        161.8253      0.003699649        70.50904
                     0.003700268        70.49874       0.02275325        161.8243        0.7539757       -80.37362      0.006401559        35.06353
                     0.003563769        109.2069       0.00498273        74.73377      0.005549466         50.2958        0.7275419       -26.41119
20.35                  0.7267787       -30.73012      0.005622581        51.91449      0.005216899         70.5392      0.003647732        103.6387
                     0.006281657        34.91372        0.7570922       -84.37037       0.02298245         156.852       0.00392374        67.56905
                     0.003924129        67.55926       0.02298218         156.851        0.7570686       -84.36198      0.006281346        34.93652
                     0.003647655        103.6394      0.005216474        70.53857      0.005622095        51.92584        0.7269798       -30.71063
20.375                  0.726522        -35.0501      0.005796527        53.02577      0.005441991        66.07206      0.003730201        98.13965
                     0.006216789        34.91489        0.7604593       -88.36671       0.02313661         151.888      0.004151493        64.16041
                      0.00415166        64.15166       0.02313632        151.8871        0.7604358       -88.35836      0.006216588        34.93885
                     0.003730139         98.1404      0.005441714        66.07166       0.00579591         53.0399        0.7267224       -35.03044
20.4                   0.7265751       -39.38802      0.006054784        53.39348      0.005654891         61.3734      0.003811634        92.69771
                     0.006210313        34.93307        0.7640718       -92.36983       0.02321552        146.9536      0.004377639        60.34401
                     0.004377602        60.33664       0.02321522        146.9528        0.7640483       -92.36148       0.00621024        34.95802
                     0.003811587        92.69843      0.005654765        61.37302      0.006054114        53.41056        0.7267746       -39.36821
20.425                 0.7269422       -43.74134      0.006377389        52.91836      0.005852404        56.47934      0.003892296        87.30043
                     0.006262918         34.8435        0.7678982        -96.3782       0.02322008        142.0687      0.004597482        56.17916
                     0.004597259        56.17336       0.02321977        142.0679        0.7678749        -96.3699      0.006262988        34.86928
                     0.003892264        87.30109      0.005852429        56.47883      0.006376741        52.93823        0.7271406       -43.72139
20.45                  0.7276262       -48.10745      0.006744343        51.60361      0.006031807        51.42217      0.003972322        81.93472
                     0.006372794          34.524        0.7719057       -100.3901       0.02315249        137.2525      0.004806911        51.72056
                     0.004806523        51.71646       0.02315217        137.2518        0.7718826       -100.3819      0.006373022        34.55036
                     0.003972305        81.93528      0.006031983        51.42141      0.006743788         51.6259        0.7278233       -48.08738
20.475                 0.7286287       -52.48364      0.007137539        49.51449      0.006190831        46.23061      0.004051699        76.58728
                     0.006535767        33.86927        0.7760596       -104.4038       0.02301629        132.5242      0.005002386         47.0172
                     0.005001855        47.01484       0.02301595        132.5235        0.7760368       -104.3956      0.006536163        33.89598
                     0.004051695        76.58771      0.006191155        46.22946      0.007137133        49.53883        0.7288243       -52.46347
20.5                   0.7299497       -56.86721      0.007541547        46.74378      0.006327654        40.93009      0.004130242        71.24501
                     0.006745732        32.80081        0.7803249       -108.4172       0.02281629        127.9025      0.005180922        42.11222
                     0.005180272        42.11157       0.02281595        127.9019        0.7803024        -108.409      0.006746301        32.82767
                     0.004130252        71.24528      0.006328121        40.92848      0.007541337        46.76976        0.7301435       -56.84696
20.525                 0.7315875       -61.25548      0.007943708        43.38942      0.006440876        35.54333      0.004207597        65.89547
                     0.006995252        31.27042        0.7846662       -112.4282       0.02255858        123.4062      0.005340063        37.04336
                     0.005339316         37.0444       0.02255825        123.4057        0.7846442         -112.42      0.006995999        31.29724
                     0.004207618        65.89558       0.00644148        35.54117      0.007943731         43.4167        0.7317794       -61.23515
20.55                  0.7335383        -65.6458      0.008333892        39.54288      0.006529506        30.09067      0.004283232        60.52732
                     0.007276186        29.25803        0.7890491       -116.4345       0.02225047        119.0534      0.005477863        31.84355
                     0.005477043        31.84621       0.02225014        119.0529        0.7890276       -116.4264      0.007277111         29.2847
                     0.004283263        60.52724      0.006530242        30.08789      0.008334174        39.57116        0.7337283        -65.6254
20.575                 0.7357966        -70.0356      0.008704143        35.28456      0.006592955        24.59049      0.004356452        55.13045
                     0.007580216        26.76622        0.7934402       -120.4338       0.02190042        114.8615       0.00559286        26.54165
                     0.005591988        26.54586        0.0219001        114.8611        0.7934191       -120.4258      0.007581315        26.79263
                     0.004356491        55.13019       0.00659381        24.58702      0.008704706        35.31359        0.7359845       -70.01515
20.6                    0.738354       -74.42243      0.009048348        30.68286      0.006631005        19.05956      0.004426414        49.69639
                     0.007899238         23.8135        0.7978077       -124.4239       0.02151794        110.8468      0.005684056        21.16309
                     0.005683154        21.16876       0.02151762        110.8463        0.7977872       -124.4159      0.007900507        23.83961
                     0.004426459        49.69594      0.006631971        19.05536      0.009049202        30.71245        0.7385397       -74.40196
20.625                 0.7411999       -78.80397       0.00936193         25.7951      0.006643804        13.51337      0.004492148        44.21831
                     0.008225629         20.4283        0.8021222       -128.4023       0.02111346        107.0234      0.005750893        15.73045
                     0.005749982        15.73748       0.02111316        107.0231        0.8021022       -128.3944      0.008227063        20.45409
                     0.004492198        44.21766      0.006644869        13.50839      0.009363084        25.82508        0.7413834       -78.78346
20.65                  0.7443215         -83.178      0.009641615        20.66904      0.006631838          7.9664      0.004552588        38.69112
                     0.008552393        16.64408        0.8063569       -132.3668       0.02069817        103.4031      0.005793234        10.26397
                     0.005792331        10.27227       0.02069789        103.4028        0.8063374        -132.359      0.008553984        16.66954
                      0.00455264        38.69028       0.00663299        7.960576      0.009643073        20.69927        0.7445027       -83.15747
20.675                  0.747703       -87.54245      0.009885237        15.34451      0.006595917        2.432288      0.004606594        33.11142
                     0.008873241        12.49596        0.8104874       -136.3151       0.02028376        99.99344      0.005811333        4.781974
                     0.005810456        4.791423        0.0202835         99.9932        0.8104686       -136.3074      0.008874978        12.52111
                     0.004606647         33.1104      0.006597144        2.425586      0.009886994        15.37487         0.747882        -87.5219
20.7                   0.7513263       -91.89546       0.01009157        9.854902      0.006537149       -3.075919      0.004652993        27.47744
                     0.009182606        8.018563        0.8144932       -140.2452       0.01988211        96.79692      0.005805811       -0.698778
                     0.005804973      -0.6882836       0.01988187        96.79673         0.814475       -140.2375      0.009184482        8.043418
                     0.004653045        27.47624      0.006538438       -3.083543       0.01009362        9.885289        0.7515032       -91.87492
20.725                 0.7551711       -96.23524       0.01026021        4.228452      0.006456917       -8.545667      0.004690603        21.78889
                     0.009475653        3.244766         0.818357        -144.155        0.0195049        93.80961      0.005777626       -6.162828
                      0.00577684       -6.151405       0.01950468        93.80946        0.8183394       -144.1474      0.009477655        3.269358
                     0.004690653        21.78753      0.006458253       -8.554249       0.01026254        4.258788        0.7553459       -96.21471
20.75                  0.7592142       -100.5603       0.01039146       -1.510671      0.006356853       -13.96477       0.00471827        16.04681
                     0.009748253       -1.794882        0.8220647       -148.0428       0.01916318        91.01998      0.005728042       -11.59582
                     0.005727317       -11.58359       0.01916299        91.01984        0.8220475       -148.0353      0.009750371       -1.770518
                     0.004718317         16.0453      0.006358222       -13.97435       0.01039406       -1.480466        0.7593872       -100.5397
20.775                 0.7634309       -104.8689       0.01048624       -7.341514      0.006238806       -19.32138      0.004734892        10.25344
                     0.009996961       -7.072324        0.8256057        -151.907       0.01886683        88.40819      0.005658593       -16.98436
                     0.005657937       -16.97145       0.01886666        88.40808        0.8255891       -151.8995      0.009999179       -7.048153
                     0.004734935        10.25179      0.006240195       -19.33199       0.01048908       -7.311511        0.7636022       -104.8484
20.8                   0.7677942         -109.16       0.01054599       -13.24563      0.006104821       -24.60397      0.004739447        4.412017
                      0.01021898       -12.56192        0.8289729       -155.7462       0.01862404         85.9461       0.00557105       -22.31597
                     0.005570467       -22.30251       0.01862389        85.94597        0.8289569       -155.7387       0.01022129        -12.5379
                     0.004739486        4.410248      0.006106216       -24.61563       0.01054906        -13.2159         0.767964       -109.1396
20.825                 0.7722756       -113.4323       0.01057263       -19.20653      0.005957098       -29.80135      0.004731019       -1.473324
                      0.01041215        -18.2402        0.8321624       -159.5592       0.01844083        83.59802      0.005467376       -27.57903
                     0.005466868       -27.56517        0.0184407        83.59789        0.8321468       -159.5518       0.01041453        -18.2163
                     0.004731053       -1.475202      0.005958483       -29.81411       0.01057589       -19.17712         0.772444       -113.4119
20.85                  0.7768454       -117.6846       0.01056842        -25.2092       0.00579796       -34.90288      0.004708814       -7.397682
                      0.01057487        -24.0856         0.835173       -163.3452       0.01832066        81.32266      0.005349689       -32.76293
                     0.005349254       -32.74881       0.01832055         81.3225        0.8351578       -163.3378       0.01057731       -24.06178
                     0.004708843       -7.399659      0.005799323       -34.91674       0.01057187       -25.18017        0.7770127       -117.6643
20.875                 0.7814729        -121.916       0.01053599       -31.23979      0.005629815       -39.89856      0.004672181       -13.35549
                      0.01070611       -30.07812        0.8380062       -167.1036       0.01826418        79.07575      0.005220211       -37.85812
                     0.005219847       -37.84388        0.0182641        79.07555        0.8379917       -167.0963        0.0107086       -30.05433
                     0.004672204       -13.35756      0.005631142       -39.91352       0.01053958       -31.21119        0.7816392       -121.8957
20.9                   0.7861268       -126.1255       0.01047819       -37.28533      0.005455118       -44.77938      0.004620621       -19.34058
                      0.01080536       -36.19897        0.8406656       -170.8341       0.01826926        76.81316      0.005081229       -42.85633
                     0.005080928       -42.84212       0.01826919         76.8129        0.8406515       -170.8268       0.01080787       -36.17519
                      0.00462064       -19.34272        0.0054564       -44.79543        0.0104819       -37.25721        0.7862926       -126.1053
20.925                 0.7907761       -130.3123       0.01039809       -43.33352      0.005276329       -49.53763      0.004553803       -25.34619
                      0.01087257       -42.43029        0.8431567       -174.5366       0.01833113        74.49408      0.004935035        -47.7509
                      0.00493479       -47.73685       0.01833106        74.49378         0.843143       -174.5294       0.01087509       -42.40648
                     0.004553818        -25.3484      0.005277553       -49.55477       0.01040189       -43.30594        0.7909413       -130.2923
20.95                  0.7953898       -134.4756        0.0102989       -49.37264       0.00509586       -54.16739      0.004471566       -31.36501
                      0.01090812       -48.75484         0.845486       -178.2116       0.01844276        72.08375      0.004783888       -52.53694
                     0.004783685       -52.52322        0.0184427         72.0834        0.8454725       -178.2044       0.01091064       -48.73098
                     0.004471577       -31.36729      0.005097017       -54.18557       0.01030276       -49.34563        0.7955547       -134.4557
20.975                 0.7999375       -138.6148       0.01018393       -55.39141       0.00491603       -58.66513      0.004373928       -37.38911
                       0.0109128        -55.1557        0.8476604        178.1405       0.01859543        69.55512      0.004629947       -57.21192
                     0.004629776       -57.19861       0.01859537        69.55469        0.8476475        178.1477       0.01091531       -55.13174
                     0.004373936       -37.39143      0.004917112       -58.68429       0.01018781       -55.36504        0.8001025       -138.5951
21                     0.8043906       -142.7292       0.01005652       -61.37908      0.004739014        -63.0301      0.004261081       -43.40982
                      0.01088774       -61.61611        0.8496872         174.519       0.01877924        66.88971      0.004475236       -61.77572
                     0.004475081       -61.76289       0.01877918        66.88926        0.8496747        174.5261       0.01089022       -61.59201
                     0.004261087       -43.41222      0.004740016       -63.05017       0.01006039       -61.35332        0.8045557       -142.7097
21.025                 0.8087216       -146.8183      0.009920021       -67.32537      0.004566789       -67.26507      0.004133399       -49.41774
                      0.01083438       -68.11897        0.8515734        170.9226       0.01898374        64.07767      0.004321582       -66.23115
                     0.004321428       -66.21895       0.01898368        64.07718        0.8515614        170.9297       0.01083681       -68.09476
                     0.004133404       -49.42017      0.004567707       -67.28593      0.009923857       -67.30031        0.8088869       -146.7989
21.05                  0.8129053       -150.8815      0.009777739        -73.2207      0.004401079       -71.37685      0.003991426       -55.40229
                      0.01075443       -74.64701        0.8533248        167.3501       0.01919844        61.11685      0.004170575       -70.58414
                     0.004170407       -70.57254       0.01919837        61.11632        0.8533132        167.3573        0.0107568       -74.62264
                     0.003991431       -55.40481      0.004401911       -71.39839      0.009781506       -73.19633        0.8130711       -150.8624
21.075                 0.8169186       -154.9186      0.009632895       -79.05629      0.004243306       -75.37651      0.003835879       -61.35176
                      0.01064982       -81.18237        0.8549458        163.8001       0.01941324        58.01173      0.004023533        -74.8437
                     0.004023335       -74.83271       0.01941316        58.01116        0.8549347        163.8073       0.01065212       -81.15781
                     0.003835884       -61.35433      0.004244052       -75.39856      0.009636562        -79.0326        0.8170848       -154.8997
21.1                   0.8207409       -158.9291      0.009488579       -84.82429      0.004094547       -79.27955      0.003667634       -67.25273
                      0.01052271       -87.70648        0.8564391        160.2708       0.01961884        54.77208      0.003881468       -79.02194
                     0.003881226       -79.01148       0.01961874        54.77148        0.8564286         160.278       0.01052493       -87.68169
                      0.00366764       -67.25535      0.004095212       -79.30196       0.00949212        -84.8013        0.8209077       -158.9104
21.125                 0.8243547       -162.9129      0.009347722       -90.51822      0.003955507       -83.10562      0.003487724       -73.08953
                      0.01037541       -94.20003        0.8578056        156.7606       0.01980696        51.41168      0.003745072        -83.1336
                     0.003744775       -83.12357       0.01980686        51.41108        0.8577955        156.7679       0.01037754       -94.17502
                     0.003487732       -73.09224      0.003956095       -83.12821      0.009351111       -90.49588         0.824522       -162.8945
21.15                  0.8277452       -166.8699      0.009213051       -96.13299      0.003826495       -86.87793      0.003297329       -78.84375
                      0.01021039       -100.6429        0.8590432        153.2676       0.01997056        47.94718      0.003614719       -87.19537
                     0.003614357        -87.1856       0.01997044        47.94658        0.8590339        153.2749       0.01021242       -100.6176
                      0.00329734       -78.84659      0.003827015       -86.90048      0.009216263        -96.1113         0.827913       -166.8518
21.175                 0.8309005       -170.8001      0.009087046       -101.6654      0.003707433       -90.62207      0.003097766       -84.49305
                      0.01003027        -107.014        0.8601481        149.7899       0.02010394        44.39711      0.003490474       -91.22511
                     0.003490041       -91.21534       0.02010381        44.39651        0.8601394        149.7973       0.01003221       -106.9885
                     0.003097781       -84.49603      0.003707894       -90.64443      0.009090061       -101.6442        0.8310689       -170.7823
21.2                   0.8338119       -174.7037      0.008971911        -107.114       0.00359788       -94.36467      0.002890484       -90.00997
                     0.009837815       -113.2917        0.8611137        146.3256       0.02020284        40.78113      0.003372131       -95.24069