! TOUCHSTONE file generated by CST MICROWAVE STUDIO
! Date and time: Fri Jun  7 22:58:35 2024
! Project name: Final_26GHz_linear.cst
! Parameters = {tand=0.003922; Connector_spacing=15.33; Coplanar_gap=0.425; Distance_inner=4.78238; Distance_outer=14.3471; L=2.6; L_pad=5; Length_strip_inner=24.3248; Length_strip_outer=27.8328; Pad_via_diameter=2.1; Pad_via_x_centre=3.75; Pad_via_z_centre=2.8; Patch_spacing=5.76524; Via_diameter=0.4; Via_spacing=0.8; W=2.6; W_PCB=70; W_line_50=1.15; W_line_small=0.1; W_pad=6; c=2.99792e+08; er=3.66; extra_distance_z=30; f=2.6e+10; k=3.99; lambda_0=11.5305; t_copper=0.012; t_substrate=0.508; theta_inner=11.3385; theta_outer=31.0293; x_triangle_inner=0.563778; x_triangle_outer=0.49272; z_Line=23.85; z_triangle_inner=0.113048; z_triangle_outer=0.296399}
! Header version: 2024
! Port assignment regex: !\s*Touchstone port\s*([0-9]+)\s*=\s*(CST MWS port|CST DES external port|CST DES block port)\s*(.+)\s* \(\"(.*)\"\)(\s*mode\s*([0-9]+))?.*
! Touchstone port assignment:
! Touchstone port 1 = CST MWS port 1 ("")
! Touchstone port 2 = CST MWS port 2 ("")
! Touchstone port 3 = CST MWS port 3 ("")
! Touchstone port 4 = CST MWS port 4 ("")
# GHz S MA R 50
20                      0.831491        101.8227       0.01275244        143.2381      0.003007872        165.6734     0.0007935662       -49.49935
                      0.01334498        143.5684         0.796125        42.08685       0.01930023        -81.7028      0.003197597        114.0568
                     0.003195474        114.0697       0.01930037       -81.70305        0.7961108        42.08712       0.01334511        143.5767
                    0.0007936124       -49.50253       0.00300726        165.6882       0.01275423        143.2372        0.8317077         101.838
20.025                 0.8291501        98.23892       0.01267748        139.7476       0.00319952        160.3919     0.0009048007        -55.9047
                      0.01355088        140.0316        0.7929191        38.89116       0.01910142        -86.5207      0.003158691        109.3246
                     0.003156541         109.341       0.01910156       -86.52095        0.7929052         38.8915       0.01355101        140.0398
                    0.0009048474       -55.90802      0.003199145        160.4067       0.01267885        139.7457        0.8293658          98.254
20.05                  0.8266108        94.66067       0.01260278        136.3326      0.003378893         155.025      0.001012686       -62.70273
                      0.01375344        136.3862        0.7896731        35.67973       0.01886381       -91.26736      0.003104387        104.8125
                     0.003102239        104.8327       0.01886393       -91.26759        0.7896594        35.68018       0.01375359        136.3943
                     0.001012732       -62.70615      0.003378758        155.0393       0.01260372          136.33        0.8268253        94.67555
20.075                 0.8238798        91.08644       0.01252989        132.9862      0.003544119        149.6085      0.001117171       -69.75731
                      0.01394762        132.6339        0.7863948        32.45214       0.01859094       -95.92174      0.003035809        100.5575
                     0.003033697        100.5818       0.01859105       -95.92194        0.7863813        32.45268       0.01394778        132.6419
                     0.001117216       -69.76081      0.003544223        149.6221       0.01253038         132.983        0.8240931        91.10117
20.1                   0.8209653        87.51483       0.01246009        129.7002      0.003693536        144.1724      0.001218309       -76.98096
                      0.01412846         128.779        0.7830932        29.20795       0.01828712       -100.4623      0.002954496         96.6026
                     0.002952455        96.63163       0.01828723       -100.4625        0.7830801        29.20861       0.01412863        128.7868
                     0.001218352       -76.98453      0.003693877        144.1849       0.01246012        129.6969        0.8211772        87.52939
20.125                 0.8178761        83.94443       0.01239433        126.4659      0.003825707        138.7425      0.001316217       -84.31344
                      0.01429116        124.8278        0.7797802         25.9468       0.01795748       -104.8672      0.002862448        92.99808
                     0.002860518        93.03216       0.01795759       -104.8674        0.7797674        25.94758       0.01429134        124.8354
                     0.001316256       -84.31705      0.003826277        138.7537       0.01239392        126.4627        0.8180866        83.95886
20.15                  0.8146222        80.37394       0.01233322        123.2735      0.003939423        133.3418      0.001411045        -91.7107
                      0.01443123        120.7885        0.7764685        22.66832       0.01760796       -109.1145       0.00276219        89.80104
                     0.002760414        89.84052       0.01760806       -109.1147        0.7764561        22.66923       0.01443141        120.7959
                      0.00141108       -91.71436      0.003940214        133.3515       0.01233238        123.2707         0.814831        80.38826
20.175                 0.8112145        76.80202       0.01227698         120.113      0.004033721        127.9921      0.001502965       -99.13888
                      0.01454451        116.6705         0.773173        19.37216       0.01724536       -113.1824      0.002656838        87.07463
                     0.002655263        87.11978       0.01724546       -113.1826        0.7731609        19.37322       0.01454469        116.6776
                     0.001502995       -99.14257       0.00403472        127.9999       0.01227574        120.1109        0.8114216        76.81623
20.2                    0.807665        73.22739       0.01222548        116.9744      0.004107905        122.7141      0.001592154       -106.5708
                      0.01462727        112.4843        0.7699097        16.05795       0.01687737       -117.0501      0.002550165        84.88496
                      0.00254884        84.93582       0.01687746       -117.0503         0.769898        16.05917       0.01462744        112.4911
                     0.001592177       -106.5745      0.004109099          122.72       0.01222387        116.9732        0.8078704        73.24154
20.225                 0.8039871        69.64881        0.0121782        113.8479      0.004161568        117.5291      0.001678791       -113.9838
                      0.01467625        108.2411        0.7666961        12.72531       0.01651254        -120.699      0.002446636        83.29465
                     0.002445611        83.35095       0.01651263       -120.6992        0.7666848         12.7267        0.0146764        108.2477
                     0.001678807       -113.9875      0.004162935        117.5328       0.01217625         113.848        0.8041905        69.66292
20.25                  0.8001951        66.06501       0.01213425        110.7247      0.004194607         112.459      0.001763051       -121.3589
                       0.0146887        103.9532        0.7635505        9.373812       0.01616022       -124.1137      0.002351395        82.35137
                     0.002350715        82.41232       0.01616031       -124.1138        0.7635395        9.375395       0.01468881        103.9594
                     0.001763059       -121.3625       0.00419613        112.4603       0.01213203        110.7261        0.8003967         66.0791
20.275                 0.7963044        62.47478       0.01209249        107.5966      0.004207265        107.5272      0.001845102       -128.6792
                      0.01466239        99.63318        0.7604919        6.003015       0.01583048       -127.2839      0.002270116        82.07074
                     0.002269822        82.13488       0.01583057       -127.2841        0.7604813        6.004794       0.01466245        99.63902
                     0.001845101       -128.6829      0.004208918        107.5259       0.01209004        107.5996         0.796504        62.48887
20.3                   0.7923316        58.87686       0.01205148        104.4571      0.004200147        102.7589      0.001925106       -135.9306
                      0.01459567         95.2944        0.7575398        2.612428       0.01553383        -130.207      0.002208676        82.41532
                     0.002208792        82.48039       0.01553391       -130.2072        0.7575295        2.614419       0.01459568        95.29989
                     0.001925096       -135.9342      0.004201904        102.7548       0.01204885        104.4617        0.7925293        58.89101
20.325                 0.7882942        55.27005       0.01200959        101.3009      0.004174268        98.18202      0.002003221       -143.1002
                      0.01448751        90.95098        0.7547136      -0.7984737       0.01528096       -132.8893      0.002172583        83.27653
                     0.002173114        83.33968       0.01528104       -132.8896        0.7547039       -0.796261       0.01448744         90.9561
                       0.0020032       -143.1038      0.004176097        98.17477       0.01200685        101.3073          0.78849        55.28425
20.35                  0.7842103        51.65309       0.01196508        98.12451      0.004131086        93.82709      0.002079602       -150.1772
                      0.01433745        86.61778        0.7520332       -4.230247       0.01508228       -135.3489      0.002166236        84.47083
                     0.002167156        84.52894       0.01508236       -135.3492        0.7520238         -4.2278       0.01433729        86.62256
                     0.002079571       -150.1807      0.004132952        93.81648       0.01196227        98.13269        0.7844044        51.66737
20.375                 0.7800991        48.02473       0.01191613        94.92633      0.004072547        89.72766      0.002154411       -157.1521
                      0.01414568         82.3107        0.7495174       -7.683475       0.01494741        -137.616      0.002192184        85.75989
                     0.002193441        85.81027       0.01494749       -137.6164        0.7495082       -7.680781       0.01414541        82.31513
                     0.002154368       -157.1557      0.004074413        89.71346       0.01191332        94.93628        0.7802915        48.03913
20.4                   0.7759802         44.3837       0.01186096        91.70641      0.004001141        85.92002      0.002227815       -164.0172
                      0.01391302        78.04673        0.7471843       -11.15876       0.01488453       -139.7333      0.002250692        86.89331
                     0.002252212        86.93419        0.0148846       -139.7337        0.7471756        -11.1558       0.01391263        78.05082
                      0.00222776       -164.0206      0.004002965        85.90198       0.01185819        91.71808         0.776171        44.39824
20.425                 0.7718736        40.72874       0.01179784        88.46664      0.003919946        82.44237      0.002299994       -170.7661
                      0.01364096        73.84431        0.7450516       -14.65668       0.01489984       -141.7539       0.00233979        87.65672
                     0.002341486        87.68747        0.0148999       -141.7543        0.7450433       -14.65346       0.01364044         73.8481
                     0.002299927       -170.7693      0.003921682        82.42034       0.01179517        88.47996         0.772063        40.74345
20.45                  0.7677998        37.05857       0.01172522        85.21071      0.003832676        79.33309       0.00237115       -177.3937
                      0.01333166        69.72352        0.7431354       -18.17785       0.01499702       -143.7376      0.002455772        87.90423
                     0.002457558        87.92534       0.01499708       -143.7381        0.7431274       -18.17435         0.013331        69.72702
                      0.00237107       -177.3969      0.003834276        79.30694       0.01172269        85.22555        0.7679877        37.07347
20.475                  0.763779         33.3719       0.01164175        81.94388      0.003743702        76.62751      0.002441504        176.1031
                        0.012988        65.70634        0.7414505       -21.72281       0.01517699       -145.7464      0.002593913        87.56579
                     0.002595709        87.57839       0.01517704       -145.7469        0.7414428       -21.71901       0.01298718        65.70963
                     0.002441411        176.1001      0.003745116        76.59727        0.0116394        81.96012        0.7639657        33.38701
20.5                   0.7598316        29.66748       0.01154635        78.67307      0.003658041        74.35304      0.002511304        169.7263
                      0.01261355        61.81705          0.74001       -25.29207       0.01543781       -147.8391      0.002749129        86.63453
                      0.00275087         86.6401       0.01543784       -147.8397        0.7400025       -25.28797       0.01261255        61.82017
                     0.002511198        169.7234      0.003659216        74.31894       0.01154421        78.69056        0.7600173        29.68282
20.525                 0.7559778        25.94403       0.01143828        75.40665      0.003581264        72.52232      0.002580824         163.476
                      0.01221264        58.08236        0.7388254       -28.88606       0.01577487       -150.0669       0.00291647        85.14598
                     0.002918103        85.14606        0.0157749       -150.0676        0.7388182       -28.88164       0.01221147        58.08539
                     0.002580705        163.4733      0.003582153        72.48484       0.01143637        75.42518        0.7561625        25.95961
20.55                  0.7522372        22.20033       0.01131713        72.15425      0.003519309        71.12482      0.002650362         157.351
                      0.01179041        54.53161        0.7379063       -32.50514       0.01618131       -152.4701       0.00309139        83.15854
                     0.003092874        83.15454       0.01618132       -152.4708        0.7378994       -32.50039       0.01178905        54.53466
                      0.00265023        157.3485      0.003519869        71.08477       0.01131547        72.17368        0.7524212        22.21617
20.575                 0.7486292         18.4352       0.01118292        68.92681      0.003478149        70.11861      0.002720239        151.3482
                      0.01135281        51.19673        0.7372605       -36.14953       0.01664851       -155.0767       0.00326987        80.73931
                     0.003271177        80.73243       0.01664851       -155.0774        0.7372537       -36.14445       0.01135126        51.19994
                     0.002720096         151.346      0.003478347        70.07713       0.01118153        68.94693        0.7488126        18.45131
20.6                   0.7451721        14.64749       0.01103611         65.7362      0.003463331        69.42521      0.002790793        145.4632
                      0.01090663         48.1119        0.7368935       -39.81936       0.01716664       -157.9027      0.003448445        77.95521
                     0.003449554        77.94644       0.01716662       -157.9034        0.7368868       -39.81393       0.01090489        48.11544
                     0.002790638        145.4612      0.003463149        69.38375       0.01103498        65.75684        0.7453551        14.66388
20.625                 0.7418837        10.83617       0.01087761        62.59522      0.003479422        68.93087      0.002862366        139.6898
                      0.01045959        45.31256        0.7368088       -43.51459       0.01772518       -160.9533       0.00362418        74.86847
                      0.00362508        74.85865       0.01772514        -160.954        0.7368021        -43.5088       0.01045766        45.31668
                     0.002862202         139.688      0.003478864        68.89098       0.01087674        62.61618        0.7420663        10.85285
20.65                  0.7387808        7.000269        0.0107088        59.51722      0.003529492        68.49663      0.002935302        134.0205
                      0.01002026        42.83373         0.737008       -47.23503       0.01831335        -164.225      0.003794631        71.53473
                     0.003795316        71.52449       0.01831328       -164.2257        0.7370014       -47.22888       0.01001815        42.83868
                     0.002935129         134.019      0.003528581        68.45984       0.01070819        59.53826        0.7389632        7.017239
20.675                 0.7358792        3.138944       0.01053159        56.51578      0.003614761        67.97584      0.003009924        128.4463
                     0.009598087        40.70698        0.7374904        -50.9803       0.01892044       -167.7079      0.003957802        68.00264
                     0.003958271         67.9925       0.01892035       -167.7087        0.7374838       -50.97378      0.009595809         40.7131
                     0.003009744        128.4451      0.003613541        67.94334       0.01053121        56.53676        0.7360615        3.156207
20.7                   0.7331935      -0.7485203       0.01034836        53.60441      0.003734521        67.23402      0.003086527        122.9573
                     0.009203195         38.9561        0.7382537       -54.74987       0.01953608       -171.3876        0.0041121         64.3143
                     0.004112358        64.30468       0.01953598       -171.3884        0.7382469       -54.74298      0.009200776        38.96376
                     0.003086342        122.9563      0.003733048        67.20664       0.01034818        53.62512        0.7333758      -0.7309635
20.725                 0.7307372       -4.662686       0.01016195        50.79585      0.003886335        66.16514      0.003165363        117.5424
                     0.008846149        37.59113         0.739293       -58.54301        0.0201504       -175.2468      0.004256309        60.50591
                     0.004256364        60.49714       0.02015027       -175.2476        0.7392862       -58.53575      0.008843624        37.60072
                     0.003165173        117.5417      0.003884679        66.14318       0.01016196        50.81612        0.7309196       -4.644839
20.75                  0.7285228        -8.60395      0.009975707        48.10144      0.004066452        64.69934      0.003246619        112.1899
                     0.008537481        36.60134        0.7406023       -62.35881       0.02075413       -179.2668      0.004389553        56.60853
                     0.004389415        56.60088       0.02075398       -179.2676        0.7405953       -62.35118      0.008534893        36.61325
                     0.003246427        112.1894      0.004064681         64.6827      0.009975869        48.12112        0.7287052       -8.585814
20.775                 0.7265611       -12.57252       0.00979335        45.53022      0.004270278        62.80254       0.00333041        106.8877
                     0.008287019         35.9486         0.742173       -66.19615       0.02133866        176.5716      0.004511273        52.64881
                     0.004510959         52.6425       0.02133849        176.5708        0.7421658       -66.18814       0.00828442        35.96317
                     0.003330218        106.8875       0.00426846        62.79083      0.009793624        45.54919        0.7267436        -12.5541
20.8                   0.7248618       -16.56841       0.00961895        43.08787      0.004492813        60.47016      0.003416765        101.6236
                     0.008103035        35.56323        0.7439954        -70.0538       0.02189611        172.2876      0.004621209        48.64961
                     0.004620735         48.6448       0.02189592        172.2868        0.7439878       -70.04537      0.008100486        35.58068
                     0.003416575        101.6236       0.00449101         60.4628      0.009619297        43.10605        0.7250445       -16.54972
20.825                 0.7234334       -20.59141      0.009456813        40.77559       0.00472899        57.71867      0.003505613        96.38561
                      0.00799134        35.34523         0.746058       -73.93023       0.02241933        167.8998      0.004719373        44.63043
                     0.004718758        44.62727       0.02241912        167.8991          0.74605       -73.92142      0.007988904         35.3656
                     0.003505426        96.38588      0.004727256        57.71501      0.009457192        40.79294        0.7236159       -20.57247
20.85                  0.7222827       -24.64112      0.009311349        38.58889      0.004973898        54.57744      0.003596778        91.16228
                      0.00795452        35.17244        0.7483478       -77.82389       0.02290191        163.4262       0.00480603        40.60784
                     0.004805295        40.60641       0.02290168        163.4255        0.7483394        -77.8147      0.007952256        35.19557
                     0.003596597        91.16275       0.00497228        54.57679      0.009311719        38.60543        0.7224653       -24.62192
20.875                 0.7214153       -28.71688      0.009186904        36.51659      0.005222916        51.08228      0.003689976        85.94282
                     0.007991533        34.91471        0.7508506         -81.733        0.0233382        158.8839      0.004881672        36.59567
                     0.004880841        36.59605       0.02333795        158.8832        0.7508417       -81.72339      0.007989495        34.94029
                     0.003689802        85.94344      0.005221454        51.08406      0.009187225        36.53238        0.7215979       -28.69744
20.9                   0.7208352       -32.81784      0.009087563        34.54003      0.005471774        47.27102      0.003784808        80.71742
                     0.008097834        34.45059        0.7535509       -85.65569       0.02372331        154.2893         0.004947        32.60523
                     0.004946095        32.60745       0.02372305        154.2885        0.7535416        -85.6457      0.008096063        34.47815
                     0.003784643         80.7182        0.0054705        47.27465      0.009087801        34.55522        0.7210177       -32.79817
20.925                 0.7205454       -36.94289      0.009016944        32.63301      0.005716579        43.18061      0.003880769        75.47739
                     0.008265966         33.6812        0.7564324       -89.58991       0.02405313        149.6579      0.005002887        28.64538
                     0.005001932        28.64944       0.02405285        149.6572        0.7564226       -89.57956      0.008264489        33.71023
                     0.003880616        75.47829      0.005715518        43.18561      0.009017066        32.64779        0.7207276       -36.92301
20.95                  0.7205469       -41.09073      0.008977976        30.76235      0.005953811        38.84558       0.00397725        70.21522
                     0.008486474        32.53811        0.7594778       -93.53362       0.02432432        145.0049       0.00505035        24.72251
                     0.005049371        24.72838       0.02432401        145.0041        0.7594675       -93.52287      0.008485303         32.5681
                     0.003977108         70.2162      0.005952984        38.85154      0.008977962        30.77697        0.7207288       -41.07066
20.975                 0.7208396       -45.25984       0.00897272         28.8893      0.006180311        34.29736      0.004073542        64.92467
                     0.008748876        30.98416        0.7626691       -97.48464       0.02453433        140.3446      0.005090517        20.84058
                     0.005089537        20.84822       0.02453402        140.3439        0.7626581       -97.47349      0.008748012        31.01465
                     0.004073414        64.92571      0.006179734        34.30391      0.008972556        28.90403        0.7210209       -45.23959
21                     0.7214216       -49.44854      0.009002229        26.97174      0.006393266        29.56407      0.004168854        59.60072
                     0.009042528        29.00917        0.7659878       -101.4408       0.02468145        135.6915      0.005124581        17.00109
                     0.005123622         17.0104       0.02468112        135.6907        0.7659762       -101.4292      0.009041963        29.03979
                     0.004168741        59.60179      0.006392948        29.57092      0.009001913        26.98687        0.7216023       -49.42809
21.025                 0.7222898       -53.65487      0.009066481        24.96683      0.006590187        24.67066      0.004262318        54.23959
                      0.00935725        26.62317        0.7694148       -105.3997       0.02476477        131.0592      0.005153763        13.20304
                     0.005152848         13.2139       0.02476442        131.0585        0.7694027       -105.3879      0.009356966        26.65366
                     0.004262219        54.24066      0.006590135        24.67754      0.009066016        24.98266        0.7224697        -53.6343
21.05                  0.7234394       -57.87686      0.009164383        22.83376      0.006768898        19.63913      0.004353002        48.83862
                     0.009683726        23.84945        0.7729312       -109.3593       0.02478425        126.4618      0.005179263         9.44297
                      0.00517841         9.45523       0.02478389        126.4611        0.7729184       -109.3471      0.009683703        23.87963
                     0.004352919        48.83968      0.006769116        19.64582      0.009163783        22.85054        0.7236184       -57.85616
21.075                 0.7248642       -62.11229      0.009293868        20.53616      0.006927524        14.48895      0.004439929         43.3962
                       0.0100137        20.71871         0.776518       -113.3173       0.02474071        121.9131      0.005202216        5.715049
                     0.005201442        5.728529       0.02474034        121.9124        0.7765045       -113.3047       0.01001392        20.74845
                     0.004439863        43.39721      0.006928011        14.49525      0.009293156        20.55411        0.7250423       -62.09146
21.1                   0.7265566       -66.35888      0.009452036        18.04393      0.007064475        9.237311      0.004522087        37.91166
                      0.01034007        17.26467         0.780156       -117.2716       0.02463586        117.4272      0.005223645        2.011227
                     0.005222965        2.025725       0.02463548        117.4265         0.780142       -117.2586        0.0103405        17.29392
                     0.004522037        37.91261      0.007065226        9.243051      0.009451241        18.06322        0.7267336       -66.33793
21.125                 0.7285076       -70.61425      0.009635351        15.33421      0.007178439        3.899555      0.004598446        32.38515
                      0.01065681        13.52124        0.7838268       -121.2198       0.02447232        113.0182      0.005244423       -1.678491
                     0.005243846       -1.663194       0.02447194        113.0175        0.7838121       -121.2065       0.01065743        13.54999
                     0.004598412        32.38602      0.007179451        3.904579      0.009634502        15.35494        0.7286835       -70.59321
21.15                  0.7307067       -74.87597      0.009839832        12.39152      0.007268377       -1.510559      0.004667968        26.81759
                      0.01095898        9.520811         0.787512       -125.1601       0.02425366        108.7006       0.00526523       -5.365697
                     0.005264763       -5.349828       0.02425327           108.7        0.7874968       -125.1464       0.01095976        9.549056
                      0.00466795        26.81835      0.007269639       -1.506386      0.009838967        12.41376        0.7308812       -74.85487
21.175                  0.733142       -79.14154       0.01006126        9.207364       0.00733351       -6.980544      0.004729627        21.21046
                      0.01124257        5.293305        0.7911941       -129.0903       0.02398437        104.4892       0.00528653        -9.06313
                     0.005286176       -9.046922       0.02398398        104.4886        0.7911784       -129.0764       0.01124349        5.321085
                     0.004729625         21.2111      0.007335012        -6.97735       0.01006042        9.231112        0.7333152       -79.12038
21.2                   0.7358007       -83.40855       0.01029536        5.779282       0.00737332       -12.49893      0.004782419        15.56583
                      0.01150445       0.8658707        0.7948564       -133.0087       0.02366992         100.399      0.005308549       -12.78418