! TOUCHSTONE file generated by CST MICROWAVE STUDIO
! Date and time: Sat Jun  8 01:11:36 2024
! Project name: Final_26GHz_linear.cst
! Parameters = {tand=0.0037; Connector_spacing=15.33; Coplanar_gap=0.425; Distance_inner=4.78238; Distance_outer=14.3471; L=2.6; L_pad=5; Length_strip_inner=24.3248; Length_strip_outer=27.8328; Pad_via_diameter=2.1; Pad_via_x_centre=3.75; Pad_via_z_centre=2.8; Patch_spacing=5.76524; Via_diameter=0.4; Via_spacing=0.8; W=2.6; W_PCB=70; W_line_50=1.15; W_line_small=0.094; W_pad=6; c=2.99792e+08; er=3.66; extra_distance_z=30; f=2.6e+10; k=3.99; lambda_0=11.5305; t_copper=0.012; t_substrate=0.508; theta_inner=11.3385; theta_outer=31.0293; x_triangle_inner=0.563778; x_triangle_outer=0.49272; z_Line=23.85; z_triangle_inner=0.113048; z_triangle_outer=0.296399}
! Header version: 2024
! Port assignment regex: !\s*Touchstone port\s*([0-9]+)\s*=\s*(CST MWS port|CST DES external port|CST DES block port)\s*(.+)\s* \(\"(.*)\"\)(\s*mode\s*([0-9]+))?.*
! Touchstone port assignment:
! Touchstone port 1 = CST MWS port 1 ("")
! Touchstone port 2 = CST MWS port 2 ("")
! Touchstone port 3 = CST MWS port 3 ("")
! Touchstone port 4 = CST MWS port 4 ("")
# GHz S MA R 50
20                     0.8336891        101.7373        0.0131112        140.2356      0.002860371        179.6143     0.0001000567       -50.85416
                         0.01319         142.535        0.7988191        41.95865       0.01896547       -80.81123      0.003068265        122.0014
                     0.003063967        122.0179       0.01896629       -80.80895        0.7983378        41.92893       0.01317966        142.5557
                    0.0001000331       -50.87137      0.002860617        179.6379       0.01309578        140.2372        0.8339221        101.7544
20.025                 0.8312951        98.17095       0.01293807        136.4691      0.003126885        173.3918     0.0002324641       -36.30461
                      0.01336474        139.0764        0.7956355        38.76626       0.01882789       -85.55778      0.003090549         117.315
                     0.003086276        117.3339       0.01882873       -85.55542        0.7951563        38.73681       0.01335463        139.0944
                    0.0002324308       -36.30949      0.003127618        173.4142       0.01292214        136.4724        0.8315273         98.1879
20.05                   0.828743        94.60997       0.01275771        132.8399      0.003379373        167.1104     0.0003747041        -38.8394
                      0.01354002        135.5245        0.7924184        35.55785       0.01865339       -90.25385      0.003097548        112.7163
                      0.00309332        112.7375       0.01865425        -90.2514        0.7919419        35.52865          0.01353        135.5396
                    0.0003746683       -38.84207      0.003380596        167.1312       0.01274134        132.8453        0.8289746        94.62681
20.075                 0.8260386        91.05247       0.01257396        129.3491      0.003615527        160.8046     0.0005184306       -44.71272
                      0.01371133        131.8766        0.7891746         32.3329       0.01844455       -94.87962      0.003089121        108.2338
                     0.003084957        108.2575       0.01844545       -94.87708         0.788701        32.30395       0.01370129        131.8888
                    0.0005183931       -44.71458      0.003617236        160.8236       0.01255723        129.3572        0.8262696        91.06918
20.1                   0.8231875        87.49659       0.01239066        125.9953      0.003833207        154.5003     0.0006623382       -51.76813
                      0.01387408        128.1328        0.7859124          29.091       0.01820468       -99.41497      0.003065447        103.8992
                     0.003061366        103.9254       0.01820563       -99.41238        0.7854421        29.06229       0.01386391        128.1421
                    0.0006622989       -51.76958      0.003835396        154.5173       0.01237367        126.0065        0.8234179        87.51317
20.125                  0.820195        83.94056       0.01221152        122.7746      0.004030457        148.2179     0.0008060054       -59.37149
                      0.01402372        124.2957        0.7826422        25.83176       0.01793786       -103.8397      0.003027056        99.74769
                     0.003023079        99.77657       0.01793885       -103.8371        0.7821754        25.80327        0.0140133        124.3022
                     0.000805964       -59.37268      0.004033112        148.2327       0.01219436        122.7892        0.8204249        83.95707
20.15                  0.8170671        80.38273          0.01204        119.6798      0.004205519        141.9747     0.0009492398       -67.26671
                      0.01415579        120.3702         0.779376        22.55481        0.0176489       -108.1334      0.002974868        95.81912
                     0.002971013        95.85086       0.01764993       -108.1308         0.778913        22.52653       0.01414502         120.374
                    0.0009491961       -67.26774      0.004208626         141.987       0.01202276        119.6982        0.8172965        80.39914
20.175                 0.8138096        76.82147       0.01187918        116.7009      0.004356859         135.786       0.00109193       -75.32772
                      0.01426608        116.3629        0.7761274        19.25983       0.01734342       -112.2761      0.002910235        92.15848
                     0.002906523        92.19327        0.0173445       -112.2734        0.7756684        19.23174       0.01425485        116.3642
                     0.001091883       -75.32863      0.004360396        135.7955       0.01186199        116.7234        0.8140385        76.83779
20.2                   0.8104292        73.25531       0.01173169        113.8245      0.004483181        129.6662       0.00123399        -83.4829
                      0.01435066        112.2817        0.7729117        15.94647       0.01702784       -116.2483      0.002834997         88.8164
                     0.002831448        88.85449       0.01702897       -116.2457         0.772457        15.91854       0.01433889        112.2808
                     0.001233941       -83.48373      0.004487126        129.6728       0.01171464        113.8512        0.8106576        73.27156
20.225                 0.8069335        69.68279       0.01159954        111.0347      0.004583459        123.6299      0.001375339       -91.68678
                      0.01440595        108.1361        0.7697455        12.61438       0.01670938       -120.0324       0.00275154         85.8489
                     0.002748174        85.89056       0.01671057       -120.0298        0.7692951        12.58659       0.01439356        108.1332
                     0.001375286       -91.68755      0.004587781        123.6335       0.01158274        111.0656        0.8071612        69.69898
20.25                  0.8033308        66.10258       0.01148409         108.313      0.004656949        117.6925      0.001515879        -99.9079
                      0.01442882        103.9363         0.766646        9.263195       0.01639604       -123.6127      0.002662859        83.31613
                     0.002659697        83.36156       0.01639728       -123.6102        0.7662001        9.235521       0.01441576        103.9317
                     0.001515823       -99.90859      0.004661615        117.6926       0.01146762         108.348        0.8035576        66.11873
20.275                 0.7996304        62.51343       0.01138595        105.6396      0.004703224        111.8705      0.001655489       -108.1229
                      0.01441661        99.69376        0.7636318        5.892524       0.01609648       -126.9778      0.002572618        81.27884
                     0.002569679        81.32822       0.01609777       -126.9755        0.7631905        5.864938       0.01440282        99.68785
                     0.001655428       -108.1235      0.004708198        111.8669       0.01136991        105.6786        0.7998565        62.52954
20.3                   0.7958432        58.91415       0.01130499        102.9939        0.0047222        106.1827      0.001794012       -116.3134
                      0.01436714        95.42061        0.7607219        2.501941       0.01581994       -130.1214      0.002485173        79.79178
                     0.002482479        79.84519       0.01582128       -130.1193        0.7602852        2.474415       0.01435259        95.41369
                     0.001793947        -116.314      0.004727438         106.175       0.01128944        103.0366        0.7960684        58.93023
20.325                 0.7919809        55.30361       0.01124033        100.3557      0.004714162        100.6503      0.001931255       -124.4645
                      0.01427881        91.12989        0.7579354       -0.909006       0.01557596       -133.0442      0.002405544        78.89289
                     0.002403112        78.95018       0.01557735       -133.0424         0.757503       -0.936498       0.01426348        91.12236
                     0.001931186       -124.4651      0.004719615        100.6381       0.01122534        100.4015         0.792205         55.3197
20.35                  0.7880568        51.68076       0.01119041        97.70582      0.004679806        95.29813      0.002066986        -132.564
                      0.01415057        86.83559        0.7552914       -4.340801        0.0153741       -135.7558      0.002339254        78.58785
                     0.002337098        78.64858       0.01537553       -135.7543        0.7548634       -4.368285       0.01413445        86.82785
                     0.002066912       -132.5646      0.004685421        95.28104       0.01117601        97.75444        0.7882798        51.69685
20.375                 0.7840855        48.04456       0.01115308        95.02745       0.00462028        90.15529      0.002200931       -140.6013
                      0.01398197        82.55275         0.752809       -7.793949       0.01522354       -138.2756      0.002291996        78.83267
                     0.002290124        78.89601         0.015225       -138.2745        0.7523852       -7.821448       0.01396507        82.54521
                     0.002200852       -140.6019      0.004625996        90.13274        0.0111393        95.07832        0.7843074         48.0607
20.4                    0.780083        44.39407       0.01112571        92.30656      0.004537236        85.25598      0.002332776       -148.5673
                      0.01377319        78.29756        0.7505064       -11.26897       0.01513257       -140.6336        0.0022691        79.52008
                     0.002267509        79.58481       0.01513406       -140.6329        0.7500865        -11.2965       0.01375554        78.29068
                     0.002332693       -148.5678      0.004542988         85.2274       0.01111254        92.35914        0.7803035        44.41025
20.425                 0.7760663        40.72832       0.01110533        89.53237        0.0044329        80.64053      0.002462179       -156.4541
                      0.01352504        74.08764         0.748401       -14.76639       0.01510814       -142.8697      0.002274844        80.47922
                     0.002273521        80.54387       0.01510964       -142.8694        0.7479848       -14.79398       0.01350667        74.08194
                     0.002462091       -156.4546      0.004438613        80.60522       0.01109276        89.58617        0.7762854        40.74459
20.45                  0.7720535        37.04643       0.01108875        86.69775      0.004310142        76.35614      0.002588766       -164.2549
                        0.013239        69.94229        0.7465095       -18.28672       0.01515532       -145.0317      0.002311809        81.49509
                     0.002310726        81.55819       0.01515683       -145.0319        0.7460966       -18.31438       0.01321998         69.9383
                     0.002588672       -164.2555      0.004315735        76.31339       0.01107675        86.75229        0.7722712         37.0628
20.475                  0.768064        33.34751       0.01107273        83.79914      0.004172586        72.45733      0.002712144       -171.9638
                      0.01291724        65.88275        0.7448468       -21.83045         0.015277       -147.1722      0.002380482         82.3453
                     0.002379601        82.40559       0.01527849       -147.1729        0.7444369        -21.8582       0.01289763        65.88106
                     0.002712046       -171.9644      0.004177969        72.40638       0.01106127        83.85395        0.7682802        33.36398
20.5                   0.7641178        29.63068       0.01105411        80.83638      0.004024713        69.00544      0.002831913       -179.5755
                      0.01256266        61.93251        0.7434268       -25.39804       0.01547358       -149.3446      0.002479291        82.83962
                     0.002478566        82.89631       0.01547504       -149.3457        0.7430195       -25.42587       0.01254255        61.93383
                      0.00283181        -179.576      0.004029787        68.94559       0.01104313        80.89115        0.7643325         29.6473
20.525                 0.7602358        25.89511        0.0110299        77.81265      0.003871988        66.06649      0.002947668        172.9146
                      0.01217888        58.11773        0.7422612       -28.98986       0.01574304       -151.5991      0.002605015        82.84687
                     0.002604398        82.89962       0.01574446       -151.6006        0.7418562       -29.01778       0.01215837        58.12276
                     0.002947561        172.9141      0.003876642        65.99713       0.01101934        77.86708        0.7604489        25.91189
20.55                   0.756439        22.13996       0.01099743        74.73389      0.003720954        63.70584      0.003059019        165.5107
                      0.01177035        54.46739        0.7413605       -32.60623       0.01608104       -153.9791      0.002753393         82.3011
                     0.002752842        82.34996       0.01608241        -153.981        0.7409573       -32.63423       0.01174955        54.47697
                     0.003058907        165.5102      0.003725072        63.62667       0.01098723        74.78777        0.7566505        22.15693
20.575                 0.7527488        18.36443       0.01095441        71.60864      0.003579269        61.97829      0.003165594        158.2163
                      0.01134232        51.01358        0.7407327       -36.24735       0.01648131       -156.5188      0.002919721        81.19184
                     0.002919197        81.23715       0.01648262       -156.5209         0.740331       -36.27543       0.01132138        51.02863
                     0.003165477        158.2158       0.00358273        61.88954       0.01094451        71.66183        0.7529588        18.38161
20.6                   0.7491868        14.56775         0.010899        68.44751       0.00345559        60.91208      0.003267054        151.0347
                      0.01090096        47.79138        0.7403842       -39.91332       0.01693604        -159.242       0.00309929          79.547
                     0.003098762        79.58923       0.01693729       -159.2444        0.7399835       -39.94147       0.01088002         47.8129
                     0.003266933        151.0342      0.003458276         60.8149       0.01088932        68.49994        0.7493953        14.58515
20.625                 0.7457741        10.74917       0.01082987        65.26296      0.003359175        60.48778      0.003363103        143.9686
                      0.01045334        44.83842        0.7403191       -43.60412       0.01743632       -162.1629       0.00328767        77.41633
                     0.003287116        77.45594       0.01743749       -162.1654        0.7399191        -43.6323       0.01043258         44.8675
                     0.003362978        143.9682      0.003360986        60.38442       0.01082035        65.31467        0.7459809        10.76683
20.65                  0.7425316        6.907998       0.01074626        62.06889      0.003299137        60.61687      0.003453498        137.0207
                      0.01000755        42.19367        0.7405398       -47.31952       0.01797259       -165.2862      0.003480847        74.85879
                     0.003480249        74.89626       0.01797368       -165.2889        0.7401399       -47.34773      0.009987144        42.23146
                      0.00345337        137.0203      0.003300008        60.51083       0.01073685        62.11996         0.742737        6.925923
20.675                 0.7394792        3.043604       0.01064801        58.88037      0.003283321        61.13137      0.003538057        130.1931
                     0.009572626        39.89524        0.7410459       -51.05922         0.018535       -168.6095      0.003675264        71.93445
                     0.003674613        71.97022       0.01853602       -168.6123         0.740646       -51.08743      0.009552789        39.94288
                     0.003537926        130.1927      0.003283239        61.02705       0.01063864        58.93095        0.7396833        3.061813
20.7                   0.7366362      -0.8445765       0.01053552        55.71326      0.003317071        61.79639      0.003616668        123.4877
                     0.009158545        37.97664        0.7418358       -54.82269       0.01911369       -172.1246      0.003867826        68.70003
                     0.003867115        68.73445       0.01911464       -172.1274        0.7414353       -54.85087      0.009139503        38.03516
                     0.003616534        123.4873      0.003316087        61.69846       0.01052616        55.76358         0.736839      -0.8260702
20.725                 0.7340209       -4.757019       0.01040988        52.58393      0.003402297         62.3492      0.003689294         116.906
                     0.008776039        36.46127         0.742905       -58.60924       0.01969908       -175.8192      0.004055868        65.20687
                     0.004055096        65.24022       0.01969995       -175.8221        0.7425038       -58.63735      0.008758033        36.53145
                     0.003689158        116.9057      0.003400526        62.26152       0.01040047        52.63428        0.7342226       -4.738204
20.75                  0.7316501       -8.694093       0.01027274        49.50882      0.003537263        62.55057      0.003755978        110.4491
                     0.008436256        35.35499        0.7442478       -62.41798       0.02028195       -179.6785       0.00423713        61.50024
                     0.004236296        61.53278       0.02028275       -179.6813        0.7438456       -62.44599      0.008419523        35.43715
                      0.00375584        110.4488      0.003534866        62.47559       0.01026327        49.55955        0.7318507       -8.674961
20.775                 0.7295392       -12.65605       0.01012639        46.50404      0.003717156        62.22572      0.003816843        104.1177
                      0.00815018        34.63785        0.7458561       -66.24794        0.0208536         176.314      0.004409717        57.61963
                     0.004408826        57.65154       0.02085432        176.3113        0.7454526       -66.27581      0.008134948        34.73163
                     0.003816704        104.1174      0.003714314        62.16425       0.01011684        46.55554        0.7297388       -12.63659
20.8                   0.7277021       -16.64299      0.009973703        43.58467      0.003935134        61.27934      0.003872096        97.91185
                     0.007927812        34.25672        0.7477203       -70.09783       0.02140591        172.1756      0.004572079        53.59916
                     0.004571136        53.63061       0.02140657        172.1729        0.7473153       -70.12552      0.007914277        34.36091
                     0.003871957        97.91159      0.003932028        61.23086      0.009964067        43.63738        0.7279009       -16.62321
20.825                 0.7261509       -20.65488      0.009818091        40.76408      0.004183422        59.68677      0.003922021        91.83107
                     0.007777174        34.12222        0.7498289       -73.96627       0.02193141        167.9234      0.004722977        49.46834
                     0.004721988        49.49944         0.021932        167.9208        0.7494223       -73.99376      0.007765473        34.23468
                     0.003921882        91.83085       0.00418022        59.64988      0.009808381        40.81849         0.726349       -20.63477
20.85                  0.7248961       -24.69151      0.009663455        38.05302      0.004454157        57.47312      0.003966974        85.87411
                     0.007703287        34.11292         0.752169        -77.8518       0.02242329        163.5746      0.004861474        45.25259
                     0.004860446        45.28343       0.02242382        163.5721        0.7517609       -77.87897       0.00769348        34.23073
                     0.003966837        85.87392      0.004451003        57.44606      0.009653689        38.10964        0.7250934       -24.67108
20.875                  0.723946       -28.75247      0.009514081        35.45854      0.004739907        54.69173      0.004007379        80.03889
                     0.007707444        34.08798        0.7547263       -81.75263       0.02287544        159.1457      0.004986907        40.97391
                     0.004985849        41.00457        0.0228759        159.1432        0.7543165       -81.77951      0.007699497        34.20782
                     0.004007242        80.03875       0.00473692        54.67271      0.009504299        35.51785        0.7241426       -28.73174
20.9                   0.7233067       -32.83722      0.009374541        32.98281      0.005033908        51.40773      0.004043706        74.32236
                     0.007786963        33.90582        0.7574853       -85.66698       0.02328244        154.6528      0.005098874        36.65135
                     0.005097793        36.68187       0.02328286        154.6504        0.7570736       -85.69353      0.007780753         34.0244
                     0.004043572        74.32225      0.005031183         51.3951      0.009364793        33.04529         0.723503       -32.81616
20.925                  0.722983       -36.94494      0.009249527        30.62197      0.005330135        47.68757      0.004076467        68.72037
                     0.007935563        33.44289        0.7604292       -89.59295       0.02363965        150.1113      0.005197217        32.30142
                      0.00519612        32.33182       0.02364001         150.109        0.7600158       -89.61914      0.007930889        33.55738
                     0.004076337        68.72031      0.005327748        47.67988      0.009239876        30.68802        0.7231787        -36.9236
20.95                   0.722977       -41.07468      0.009143671        28.36505      0.005623278         43.5934      0.004106193         63.2277
                     0.008144228        32.60688        0.7635402       -93.52856        0.0239431        145.5361      0.005282006        27.93834
                     0.005280902        27.96863       0.02394343        145.5339        0.7631253       -93.55426      0.008140833        32.71522
                     0.004106066        63.22768      0.005621287        43.58944       0.00913419        28.43498        0.7231723       -41.05307
20.975                 0.7232888       -45.22527      0.009061331        26.19341      0.005908675        39.18064      0.004133414         57.8379
                      0.00840229         31.3416           0.7668       -97.47156       0.02418966        140.9417       0.00535352        23.57437
                     0.005352415        23.60455       0.02418994        140.9396        0.7663837       -97.49687      0.008399893        31.44254
                     0.004133292        57.83791      0.005907128         39.1794      0.009052104        26.26737        0.7234837        -45.2034
21                     0.7239165       -49.39532      0.009006363        24.08056      0.006182252        34.49739       0.00415864        52.54329
                      0.00869848        29.62427        0.7701896         -101.42       0.02437691        136.3421      0.005412231        19.21991
                      0.00541113        19.24998       0.02437716        136.3401        0.7697719       -101.4448      0.008696797        29.71729
                     0.004158523        52.54335      0.006181178        34.49805      0.008997472        24.15855         0.724111       -49.37322
21.025                  0.724856       -53.58332       0.00898189          21.993      0.006440448        29.58481      0.004182336        47.33504
                     0.009021747        27.45839        0.7736895       -105.3715       0.02450327        131.7513      0.005458778        14.88365
                     0.005457685        14.91358       0.02450348        131.7494        0.7732706       -105.3958      0.009020506        27.54355
                     0.004182225        47.33512      0.006439872        29.58669      0.008973419        22.07482        0.7250502       -53.56098
21.05                  0.7261014       -57.78752      0.008990119        19.89168      0.006680167        24.47782      0.004204901        42.20322
                     0.009361813        24.86541        0.7772798       -109.3241       0.02456796        127.1829      0.005493945        10.57259
                     0.005492863        10.60235       0.02456814        127.1811        0.7768601       -109.3478      0.009360767        24.94316
                     0.004204797        42.20331      0.006680103        24.48037      0.008982144        19.97696        0.7262952       -57.76499
21.075                 0.7276446       -62.00605      0.009032191         17.7344      0.006898733        19.20605      0.004226644        37.13695
                     0.009709464        21.87722        0.7809409       -113.2753       0.02457105        122.6506      0.005518636        6.292099
                     0.005517567        6.321665       0.02457121        122.6489        0.7805205       -113.2985      0.009708402        21.94823
                     0.004226548        37.13705      0.006899188        19.20882      0.009024777        17.82259        0.7278379       -61.98331
21.1                   0.7294754       -66.23681      0.009108125        15.47849      0.007093858        13.79469      0.004247769        32.12465
                      0.01005669        18.53049         0.784653       -117.2233       0.02451345        118.1681      0.005533844        2.045893
                     0.005532788        2.075224       0.02451359        118.1665        0.7842322       -117.2459       0.01005542        18.59556
                     0.004247682        32.12476      0.007094832        13.79728      0.009101322         15.5689        0.7296684       -66.21401
21.125                 0.7315824       -70.47776       0.00921683        13.08366      0.007263613        8.265228      0.004268356        27.15424
                      0.01039665        14.86282        0.7883969       -121.1657       0.02439698        113.7494      0.005540625       -2.163985
                      0.00553958       -2.134924        0.0243971        113.7478         0.787976       -121.1877       0.01039504        14.92276
                     0.004268277        27.15434        0.0072651        8.267311      0.009210671        13.17553        0.7317749       -70.45482
21.15                   0.733952       -74.72664      0.009356215        10.51438      0.007406412        2.636154      0.004288348        22.21347
                      0.01072367        10.91042        0.7921534       -125.1006       0.02422434        109.4085      0.005540058       -6.337171
                      0.00553902       -6.308415       0.02422445         109.407        0.7917327        -125.122       0.01072158        10.96603
                     0.004288278        22.21355      0.007408402        2.637449      0.009350708        10.60691        0.7341438       -74.70358
21.175                  0.736569       -78.98108      0.009523341        7.741645      0.007520993        -3.07645      0.004307544         17.2902
                       0.0110331        6.706858        0.7959044        -129.026       0.02399918        105.1599      0.005533215       -10.47499
                     0.005532179       -10.44657       0.02399927        105.1585        0.7954842       -129.0468       0.01103044        6.758885
                     0.004307484        17.29025      0.007523472       -3.076193      0.009518482        7.834067        0.7367602       -78.95795
21.2                   0.7394169       -83.23876       0.00971463        4.743845      0.007606408       -8.858437      0.004325606        12.37275
                      0.01132122        2.282557        0.7996322       -132.9401       0.02372604        101.0182      0.005521128       -14.58043