! TOUCHSTONE file generated by CST MICROWAVE STUDIO
! Date and time: Fri Jun  7 00:43:40 2024
! Project name: Final_26GHz_linear.cst
! Parameters = {Connector_spacing=15.33; Coplanar_gap=0.425; Distance_inner=4.78238; Distance_outer=14.3471; L=2.6; L_pad=5; Length_strip_inner=24.3248; Length_strip_outer=27.8328; Pad_via_diameter=2.1; Pad_via_x_centre=3.75; Pad_via_z_centre=2.8; Patch_spacing=5.76524; Via_diameter=0.4; Via_spacing=0.8; W=2.6; W_PCB=70; W_line_50=1.15; W_line_small=0.1; W_pad=6; c=2.99792e+08; er=3.4404; extra_distance_z=30; f=2.6e+10; k=3.99; lambda_0=11.5305; t_copper=0.012; t_substrate=0.508; theta_inner=11.3385; theta_outer=31.0293; x_triangle_inner=0.563778; x_triangle_outer=0.49272; z_Line=23.85; z_triangle_inner=0.113048; z_triangle_outer=0.296399}
! Header version: 2024
! Port assignment regex: !\s*Touchstone port\s*([0-9]+)\s*=\s*(CST MWS port|CST DES external port|CST DES block port)\s*(.+)\s* \(\"(.*)\"\)(\s*mode\s*([0-9]+))?.*
! Touchstone port assignment:
! Touchstone port 1 = CST MWS port 1 ("")
! Touchstone port 2 = CST MWS port 2 ("")
! Touchstone port 3 = CST MWS port 3 ("")
! Touchstone port 4 = CST MWS port 4 ("")
# GHz S MA R 50
20                     0.8221649       -174.5728       0.01129298        -125.224      0.002669009       -146.5065      0.002080552       -70.80722
                      0.01197272       -139.7586        0.8588218        109.1873       0.01860562       -3.653623       0.00238225        -146.255
                     0.002381747       -146.2701       0.01860569       -3.653835        0.8588059        109.1883       0.01197336       -139.7452
                     0.002080556       -70.80825      0.002671466       -146.5068       0.01129312       -125.2047        0.8224082       -174.5501
20.025                 0.8253236       -178.6619       0.01147374       -129.2355      0.002642794       -155.2195      0.001948668       -76.19108
                      0.01196928       -143.8675        0.8569421        106.0351       0.01826261       -6.203198      0.002448447       -155.1355
                     0.002447798       -155.1504       0.01826268       -6.203393        0.8569265         106.036       0.01196993       -143.8544
                     0.001948665       -76.19179      0.002645284       -155.2217       0.01147397       -129.2159        0.8255668       -178.6396
20.05                  0.8282455        177.2823       0.01166497       -133.2643      0.002613133       -163.6181      0.001814286       -81.42585
                       0.0119721       -147.8625        0.8549257        102.9084       0.01798228        -8.70336      0.002513962       -163.6829
                     0.002513165       -163.6976       0.01798236       -8.703538        0.8549103        102.9091       0.01197275       -147.8497
                     0.001814277       -81.42613      0.002615648       -163.6224       0.01166531       -133.2445        0.8284883        177.3041
20.075                 0.8309214          173.26       0.01186469       -137.3162      0.002578531       -171.6823      0.001678432       -86.46774
                       0.0119832       -151.7495        0.8527894        99.80534       0.01776481       -11.18682      0.002576774       -171.9055
                     0.002575828       -171.9199       0.01776489       -11.18698        0.8527742          99.806       0.01198384       -151.7371
                     0.001678421       -86.46754      0.002581062        -171.689       0.01186516       -137.2964        0.8311637        173.2813
20.1                   0.8333442        169.2714       0.01207069       -141.3955      0.002537711       -179.3927      0.001542193       -91.26019
                      0.01200445       -155.5365        0.8505487        96.72416       0.01760863        -13.6876      0.002635022       -179.8145
                     0.002633926       -179.8286       0.01760872       -13.68774        0.8505338        96.72472        0.0120051       -155.5243
                     0.001542181       -91.25941      0.002540245       -179.4021        0.0120713       -141.3757         0.833586        169.2922
20.125                 0.8355092        165.3165       0.01228059       -145.5046      0.002489671        173.2708      0.001406738       -95.72892
                      0.01203755       -159.2334        0.8482181        93.66295       0.01751051       -16.23898      0.002687034        172.5777
                     0.002685787        172.5642        0.0175106       -16.23911        0.8482035        93.66339       0.01203821       -159.2216
                     0.001406727       -95.72749      0.002492194        173.2583       0.01228135       -145.4849        0.8357499        165.3369
20.15                  0.8374131        161.3951        0.0124919       -149.6444      0.002433734        166.3317      0.001273352       -99.77523
                      0.01208389       -162.8519        0.8458108         90.6197       0.01746576       -18.87162      0.002731351        165.2597
                     0.002729956        165.2469       0.01746586       -18.87174        0.8457962        90.62008       0.01208455       -162.8404
                     0.001273345         -99.773      0.002436229        166.3157       0.01249282       -149.6251        0.8376526         161.415
20.175                 0.8390543        157.5068       0.01270207       -153.8146      0.002369598        159.8185      0.001143503       -103.2665
                      0.01214451        -166.405         0.843338        87.59248       0.01746847       -21.61192      0.002766738        158.2214
                     0.002765197        158.2096       0.01746858       -21.61202        0.8433236        87.59278       0.01214517       -166.3938
                     0.001143504       -103.2633      0.002372046        159.7986       0.01270315       -153.7956        0.8392925        157.5262
20.2                   0.8404333         153.651       0.01290854       -158.0134      0.002297384        153.7672      0.001018936       -106.0246
                      0.01222007       -169.9069          0.84081        84.57924       0.01751186       -24.48094      0.002792194        151.4555
                     0.002790511        151.4447       0.01751197       -24.48103        0.8407957        84.57946       0.01222074        -169.896
                     0.001018947       -106.0205      0.002299763        153.7428       0.01290977       -157.9948        0.8406699          153.67
20.225                 0.8415515        149.8272       0.01310876       -162.2379      0.002217694        148.2231     0.0009018173       -107.8141
                      0.01231079        -173.372        0.8382352        81.57797       0.01758857       -27.49386      0.002806955        144.9572
                     0.002805137        144.9479       0.01758869       -27.49394        0.8382211        81.57811       0.01231147       -173.3614
                    0.0009018426       -107.8089       0.00221998        148.1937       0.01311015       -162.2199        0.8417864        149.8458
20.25                  0.8424118        146.0345       0.01330028       -166.4846      0.002131682        143.2428     0.0007949419       -108.3373
                      0.01241642       -176.8148        0.8356205        78.58663       0.01769098       -30.65995      0.002810505        138.7255
                     0.002808561        138.7179       0.01769111       -30.66003        0.8356065        78.58671        0.0124171       -176.8046
                    0.0007949852       -108.3311      0.002133845        143.2077       0.01330182       -166.4673        0.8426445        146.0526
20.275                 0.8430177        142.2721       0.01348077        -170.749      0.002041135        138.8953     0.0007019572       -107.2627
                      0.01253625        179.7507        0.8329715        75.60322       0.01781153       -33.98302       0.00280258        132.7628
                     0.002800519        132.7571       0.01781167       -33.98309        0.8329576        75.60327       0.01253694        179.7605
                    0.0007020221       -107.2559      0.002043143        138.8539       0.01348245       -170.7324        0.8432482        142.2897
20.3                   0.8433736        138.5387       0.01364804       -175.0262      0.001948581         135.261     0.0006274483       -104.3328
                      0.01266912        176.3114        0.8302925        72.62582        0.0179429       -37.46201      0.002783168        127.0753
                     0.002781003         127.072       0.01794304       -37.46207        0.8302787        72.62583       0.01266981        176.3209
                    0.0006275373       -104.3261      0.001950397        135.2127       0.01364984       -175.0103        0.8436019         138.556
20.325                 0.8434851        134.8333       0.01380007       -179.3106       0.00185739        132.4273     0.0005764661       -99.60108
                      0.01281343        172.8559        0.8275865         69.6525       0.01807819       -41.09188      0.002752526        121.6736
                     0.002750273        121.6731       0.01807835       -41.09194        0.8275727        69.65249       0.01281413        172.8651
                    0.0005765784       -99.59589      0.001858971        132.3718       0.01380198       -179.2956        0.8437109        134.8502
20.35                  0.8433574        131.1547       0.01393506        176.4034      0.001771861        130.4768     0.0005530052       -93.70796
                      0.01296722        169.3743        0.8248554        66.68146        0.0182111       -44.86435      0.002711187        116.5725
                     0.002708864        116.5752       0.01821126       -44.86441        0.8248419         66.6814       0.01296792         169.383
                    0.0005531351       -93.70581      0.001773164        130.4142       0.01393706        176.4176        0.8435805        131.1712
20.375                 0.8429963        127.5014       0.01405143        172.1221      0.001697221        129.4647     0.0005578352       -87.84143
                      0.01312819        165.8583        0.8221008        63.71089       0.01833592       -48.76874      0.002659973        111.7915
                     0.002657599         111.798       0.01833609        -48.7688        0.8220873        63.71085       0.01312888        165.8668
                    0.0005579732       -87.84307      0.001698201        129.3959       0.01405351        172.1353         0.843217        127.5177
20.4                   0.8424082        123.8722       0.01414786        167.8515      0.001639414        129.3844     0.0005876031       -83.18685
                      0.01329379        162.3021         0.819323        60.73919       0.01844767       -52.79255      0.002600008        107.3548
                      0.00259761        107.3656       0.01844784       -52.79262        0.8193095        60.73914       0.01329447        162.3101
                    0.0005877387       -83.19192      0.001640036        129.3111       0.01414999        167.8638        0.8426264        123.8882
20.425                 0.8415993        120.2656       0.01422329        163.5981      0.001604578        130.1269     0.0006363617       -80.37916
                      0.01346126        158.7013        0.8165223        57.76474       0.01854203       -56.92207      0.002532742        103.2911
                     0.002530347        103.3067       0.01854221       -56.92214        0.8165091        57.76468       0.01346193         158.709
                    0.0006364873       -80.38673      0.001604818        130.0525       0.01422545        163.6094        0.8418147        120.2813
20.45                  0.8405757          116.68        0.0142769        159.3684      0.001598134        131.4573      0.000697951       -79.46758
                      0.01362773        155.0536        0.8136989        54.78603       0.01861542       -61.14276      0.002459965        99.63279
                     0.002457605         99.6539       0.01861561       -61.14282        0.8136857          54.786       0.01362838        155.0609
                    0.0006980622       -79.47664      0.001597997        131.3856       0.01427906        159.3787        0.8407884        116.6955
20.475                 0.8393436        113.1141       0.01430819        155.1688      0.001623719        133.0324     0.0007673853       -80.19223
                      0.01379024        151.3583        0.8108526        51.80171       0.01866492       -65.43951      0.002383825        96.41499
                     0.002381537        96.44219       0.01866511       -65.43959        0.8108395        51.80171       0.01379087        151.3653
                    0.0007674799       -80.20194      0.001623238        132.9674       0.01431033        155.1781        0.8395539        113.1293
20.5                   0.8379096        109.5662       0.01431692        151.0059      0.001682378         134.473     0.0008411089       -82.21987
                      0.01394587        147.6163        0.8079838        48.81047       0.01868828         -69.797      0.002306838        93.67256
                     0.002304664        93.70636       0.01868847       -69.79708        0.8079709         48.8105       0.01394647        147.6229
                    0.0008411861        -82.2298      0.001681614        134.4177       0.01431901        151.0142        0.8381174        109.5813
20.525                 0.8362795        106.0348       0.01430315        146.8862      0.001772466        135.4554     0.0009167448       -85.25172
                       0.0140917        143.8298        0.8050933         45.8111        0.0186839       -74.19961       0.00223188         91.4358
                     0.002229863        91.47664       0.01868409       -74.19972        0.8050807        45.81118       0.01409227        143.8361
                    0.0009168045       -85.26158      0.001771495        135.4111       0.01430516        146.8935        0.8364849        106.0497
20.55                  0.8344598        102.5183       0.01426719        142.8162      0.001890255        135.7731      0.000992765       -89.05029
                      0.01422497        140.0022        0.8021825        42.80247       0.01865078       -78.63177      0.002162134        89.72425
                     0.002160321        89.77217       0.01865097       -78.63188        0.8021698        42.80261        0.0142255         140.008
                    0.0009928071        -89.0599      0.001889156        135.7396        0.0142691        142.8225         0.834663        102.5331
20.575                 0.8324568        99.01532       0.01420967        138.8023      0.002030869        135.3452      0.001068224       -93.43541
                      0.01434303        136.1376        0.7992533        39.78358       0.01858852       -83.07775      0.002100999        88.53801
                     0.002099438        88.59271       0.01858872       -83.07786        0.7992408        39.78378       0.01434351        136.1432
                     0.001068249       -93.44464      0.002029717        135.3213       0.01421145        138.8076        0.8326579        99.02997
20.6                   0.8302768        95.52421       0.01413147        134.8507      0.002189126        134.1861      0.001142573       -98.27204
                      0.01444344        132.2414        0.7963087        36.75344       0.01849731        -87.5218      0.002051912        87.84853
                     0.002050645        87.90916       0.01849751       -87.52194        0.7962964        36.75372       0.01444386        132.2466
                     0.001142581       -98.28089      0.002187984        134.1701       0.01413309        134.8551         0.830476        95.53878
20.625                 0.8279265        92.04353       0.01403371        130.9678      0.002360075        132.3654      0.001215535       -103.4585
                      0.01452396        128.3192        0.7933526        33.71118       0.01837788       -91.94815      0.002018091        87.59076
                     0.002017156        87.65577       0.01837808       -91.94832        0.7933405        33.71154       0.01452432        128.3241
                     0.001215527       -103.4669      0.002358989        132.3555       0.01403515        130.9713         0.828124        92.05801
20.65                  0.8254127        88.57182       0.01391779        127.1594      0.002539239        129.9755      0.001287023       -108.9175
                      0.01458262        124.3775        0.7903902        30.65593        0.0182315       -96.34096      0.002002222        87.66066
                      0.00200164        87.72803        0.0182317       -96.34112        0.7903784         30.6564        0.0145829        124.3821
                     0.001286999       -108.9254      0.002538247        129.9703       0.01391903        127.1621        0.8256086        88.58623
20.675                 0.8227428        85.10761        0.0137853        123.4314      0.002722692        127.1119      0.001357083       -114.5889
                       0.0146177        120.4231        0.7874273        27.58694       0.01806003       -100.6843      0.002006131        87.92174
                     0.002005909          87.989       0.01806022       -100.6845        0.7874158        27.58751       0.01461791        120.4274
                     0.001357042       -114.5965      0.002721822        127.1101       0.01378632        123.4334        0.8229373        85.12201
20.7                   0.8199243        81.64952       0.01363805        119.7891       0.00290703        123.8628      0.001425853       -120.4257
                      0.01462779        116.4635        0.7844714        24.50343       0.01786582       -104.9624       0.00203055         88.2207
                     0.002030677        88.28543       0.01786601       -104.9627        0.7844601        24.50412       0.01462791        116.4675
                     0.001425797       -120.4328      0.002906301        123.8633       0.01363883        119.7904        0.8201177        81.66388
20.725                 0.8169654        78.19614       0.01347804        116.2376      0.003089315        120.3055      0.001493539       -126.3899
                      0.01461178        112.5063        0.7815305         21.4047        0.0176518       -109.1594      0.002075035        88.40893
                      0.00207548        88.46901       0.01765199       -109.1597        0.7815195        21.40551       0.01461181        112.5101
                     0.001493467       -126.3965       0.00308874        120.3075       0.01347856        116.2384        0.8171576        78.21048
20.75                  0.8138747        74.74613       0.01330741        112.7813      0.003267015         116.506       0.00156039       -132.4507
                      0.01456888        108.5597        0.7786139        18.29003       0.01742143       -113.2598      0.002138073        88.36244
                     0.002138793        88.41631       0.01742161       -113.2601        0.7786031        18.29097        0.0145688        108.5632
                     0.001560304       -132.4568      0.003266603        116.5087       0.01330766        112.7817        0.8140663        74.76048
20.775                 0.8106619        71.29817       0.01312842        109.4242      0.003437955        112.5197      0.001626686       -138.5824
                      0.01449862        104.6322        0.7757319        15.15873       0.01717872       -117.2484      0.002217329        87.99423
                     0.002218274        88.04102        0.0171789       -117.2488        0.7757214        15.15983       0.01449843        104.6355
                     0.001626586       -138.5881      0.003437708        112.5228       0.01312839        109.4243        0.8108526        71.31253
20.8                   0.8073366        67.85095       0.01294342        106.1694      0.003600277        108.3937      0.001692722       -144.7637
                      0.01440089        100.7328        0.7728955        12.01014       0.01692823        -121.111      0.002309967        87.25703
                      0.00231108        87.29647        0.0169284       -121.1114        0.7728854         12.0114       0.01440059        100.7359
                     0.001692608       -144.7689      0.003600196        108.3967       0.01294311        106.1692        0.8075269        67.86533
20.825                 0.8039099        64.40321       0.01275482        103.0189      0.003752411        104.1676        0.0017588       -150.9765
                      0.01427593        96.87084        0.7701166        8.843562       0.01667503       -124.8344      0.002412941        86.13834
                      0.00241417        86.17065       0.01667519       -124.8349        0.7701068        8.844986       0.01427551        96.87378
                     0.001758673       -150.9813      0.003752494        104.1701       0.01275423        103.0188        0.8040998         64.4176
20.85                  0.8003929        60.95367       0.01256504        99.97401      0.003893063        99.87528      0.001825222       -157.2055
                      0.01412431        93.05628        0.7674078        5.658311       0.01642471       -128.4074      0.002523233        84.65159
                     0.002524527        84.67734       0.01642486       -128.4079        0.7673982        5.659913       0.01412377        93.05907
                     0.001825082       -157.2098      0.003893303        99.87716       0.01256416        99.97401        0.8005826        60.96809
20.875                 0.7967983        57.50106       0.01237645        97.03463      0.004021199        95.54633      0.001892281       -163.4377
                      0.01394699        89.29948        0.7647819        2.453699       0.01618326       -131.8212       0.00263801        82.82716
                     0.002639324        82.84702        0.0161834       -131.8217        0.7647726        2.455492       0.01394632        89.30218
                      0.00189213       -163.4415      0.004021587         95.5473       0.01237531        97.03495        0.7969876        57.51553
20.9                   0.7931386        54.04418       0.01219136         94.1994       0.00413604        91.20671      0.001960261       -169.6622
                      0.01374528        85.61145        0.7622521      -0.7709706       0.01595706       -135.0704      0.002754715        80.70444
                     0.002756011        80.71919       0.01595719        -135.071        0.7622432      -0.7689763       0.01374448        85.61407
                     0.001960099       -169.6656      0.004136567        91.20658       0.01218997        94.20023        0.7933278         54.0587
20.925                 0.7894275        50.58178       0.01201198        91.46555      0.004237068        86.87974      0.002029426         -175.87
                      0.01352088        82.00374        0.7598321       -4.016398        0.0157527       -138.1537      0.002871112        78.32652
                     0.002872357        78.33695       0.01575281       -138.1544        0.7598235       -4.014191       0.01351993        82.00634
                     0.002029254       -175.8729       0.00423772        86.87836       0.01201034        91.46705        0.7896166        50.59635
20.95                  0.7856792        47.11261        0.0118403        88.82882      0.004324021        82.58677      0.002100024        177.9463
                      0.01327583         78.4885        0.7575352       -7.283282       0.01557682       -141.0752      0.002985301        75.73655
                     0.002986466        75.74338       0.01557692       -141.0759        0.7575268       -7.280853       0.01327475        78.49114
                     0.002099842        177.9438      0.004324783          82.584       0.01183846        88.83117        0.7858682        47.12724
20.975                 0.7819086        43.63546       0.01167818        86.28347      0.004396901        78.34754      0.002172277        171.7926
                       0.0130126        75.07853        0.7553748       -10.57232       0.01543594       -143.8446      0.003095711        72.97564
                     0.003096774        72.97957       0.01543601       -143.8454        0.7553666       -10.56966       0.01301139        75.08127
                     0.002172087        171.7905      0.004397757        78.34325       0.01167615        86.28683        0.7820975        43.65015
21                     0.7781306        40.14909       0.01152719        83.82239       0.00445598        74.18063      0.002246384        165.6732
                      0.01273401        71.78705        0.7533637        -13.8842       0.01533614       -146.4781      0.003201095        70.08195
                     0.003202039         70.0836        0.0153362       -146.4789        0.7533559       -13.88129       0.01273265        71.78995
                     0.002246188        165.6715      0.004456911        74.17474       0.01152501         83.8269        0.7783196        40.16385
21.025                 0.7743614        36.65226       0.01138866        81.43714      0.004501806        70.10365      0.002322519        159.5913
                      0.01244327        68.62771        0.7515145       -17.21958       0.01528286       -148.9979      0.003300516        67.09027
                     0.003301329        67.09018       0.01528289       -148.9987        0.7515069       -17.21642       0.01244178        68.63088
                     0.002322316          159.59      0.004502792        70.09607       0.01138636        81.44293        0.7745501        36.66709
21.05                  0.7706166        33.14374       0.01126362        79.11818      0.004535204        66.13327      0.002400821        153.5488
                      0.01214398        65.61426        0.7498391       -20.57909       0.01528053        -151.432      0.003393337        64.03188
                     0.003394008        64.03058       0.01528054       -151.4329        0.7498318       -20.57566       0.01214236        65.61776
                     0.002400614        153.5478      0.004536224        66.12398       0.01126124        79.12533        0.7708051        33.15865
21.075                 0.7669124        29.62228       0.01115284        76.85513      0.004557286        62.28526      0.002481405        147.5465
                      0.01184011        62.76024        0.7483487       -23.96334       0.01533243       -153.8128      0.003479204        60.93479
                      0.00347973        60.93273       0.01533242       -153.8137        0.7483416       -23.95963       0.01183836        62.76418
                     0.002481194        147.5459      0.004558318        62.27417       0.01115041        76.86372        0.7671009        29.63728
21.1                   0.7632654        26.08666       0.01105676        74.63706      0.004569448        58.57413      0.002564348        141.5844
                      0.01153598         60.0784        0.7470535       -27.37284       0.01544039       -156.1753       0.00355804        57.82384
                     0.003558418        57.82142       0.01544035       -156.1762        0.7470466       -27.36885       0.01153411         60.0829
                     0.002564136        141.5841      0.004570466        58.56127       0.01105432        74.64713        0.7634535        26.10175
21.125                 0.7596915        22.53565       0.01097556        72.45284      0.004573362        55.01288      0.002649694        135.6614
                      0.01123623        57.58003        0.7459628       -30.80809       0.01560473       -158.5551      0.003630033        54.72084
                     0.003630266        54.71844       0.01560466        -158.556         0.745956        -30.8038       0.01123426        57.58521
                     0.002649481        135.6614      0.004574344        54.99828       0.01097316        72.46435        0.7598791        22.55085
21.15                   0.756207        18.96805       0.01090919        70.29138      0.004570968        51.61236      0.002737449         129.776
                      0.01094579        55.27397        0.7450848       -34.26946       0.01582421        -160.986      0.003695621        51.64463
                     0.003695715        51.64257       0.01582413       -160.9869        0.7450782       -34.26487       0.01094372        55.27998
                     0.002737237        129.7764      0.004571889        51.59607       0.01090685        70.30433        0.7563942        18.98336
21.175                 0.7528279        15.38267       0.01085735        68.14204       0.00456445        48.38053      0.002827582         123.926
                      0.01066977        53.16551        0.7444267       -37.75726       0.01609614       -163.4985      0.003755481        48.61102
                     0.003755444         48.6096       0.01609602       -163.4994        0.7444201       -37.75235       0.01066761        53.17249
                     0.002827372        123.9265      0.004565287        48.36267        0.0108551        68.15634        0.7530147         15.3981
21.2                   0.7495698        11.77836       0.01081959        65.99482      0.004556198        45.32155      0.002920019        118.1086
                      0.01041336        51.25506        0.7439941       -41.27168       0.01641647       -166.1177       0.00381051        45.63274