! TOUCHSTONE file generated by CST MICROWAVE STUDIO
! Date and time: Fri Jun  7 19:41:16 2024
! Project name: Final_26GHz_linear.cst
! Parameters = {Connector_spacing=15.33; Coplanar_gap=0.425; Distance_inner=4.78238; Distance_outer=14.3471; L=2.6; L_pad=5; Length_strip_inner=24.3248; Length_strip_outer=27.8328; Pad_via_diameter=2.1; Pad_via_x_centre=3.75; Pad_via_z_centre=2.8; Patch_spacing=5.76524; Via_diameter=0.4; Via_spacing=0.8; W=2.6; W_PCB=70; W_line_50=1.15; W_line_small=0.1; W_pad=6; c=2.99792e+08; er=3.8796; extra_distance_z=30; f=2.6e+10; k=3.99; lambda_0=11.5305; t_copper=0.012; t_substrate=0.508; theta_inner=11.3385; theta_outer=31.0293; x_triangle_inner=0.563778; x_triangle_outer=0.49272; z_Line=23.85; z_triangle_inner=0.113048; z_triangle_outer=0.296399}
! Header version: 2024
! Port assignment regex: !\s*Touchstone port\s*([0-9]+)\s*=\s*(CST MWS port|CST DES external port|CST DES block port)\s*(.+)\s* \(\"(.*)\"\)(\s*mode\s*([0-9]+))?.*
! Touchstone port assignment:
! Touchstone port 1 = CST MWS port 1 ("")
! Touchstone port 2 = CST MWS port 2 ("")
! Touchstone port 3 = CST MWS port 3 ("")
! Touchstone port 4 = CST MWS port 4 ("")
# GHz S MA R 50
20                     0.7539588        24.67381      0.009061689        66.29923      0.005022897        98.37565       0.00191611       -178.9324
                      0.01166324        56.90762        0.7421558        -31.5785       0.01767457       -158.0029       0.00320056        82.00831
                     0.003200629        82.03047       0.01767455       -158.0035        0.7421498       -31.57393       0.01166245        56.91384
                     0.001916048       -178.9341      0.005024431        98.37278      0.009058925        66.29877        0.7541629        24.69006
20.025                 0.7500524        20.74264      0.008717593        64.52045      0.004996131        93.37987      0.001963774        177.4202
                      0.01121908         53.2929        0.7412351       -35.43257       0.01764184       -160.9265      0.003143736        79.53531
                     0.003143897        79.55825       0.01764181       -160.9272        0.7412292       -35.42762       0.01121819        53.29896
                     0.001963702        177.4187      0.004997735         93.3743      0.008714537        64.52257        0.7502552        20.75913
20.05                  0.7463686        16.78537      0.008418025        63.05467      0.004946852        88.60569      0.002026172        173.8928
                      0.01076747        49.90153        0.7405663       -39.30522        0.0176607       -163.7374       0.00308673        77.49123
                     0.003087003        77.51465       0.01766065       -163.7381        0.7405602        -39.2999       0.01076645        49.90749
                     0.002026091        173.8916       0.00494849        88.59725      0.008414754        63.06003        0.7465702         16.8021
20.075                 0.7429287        12.80046      0.008169378        61.85899      0.004877933        84.08639      0.002104635        170.3852
                      0.01031505        46.76242        0.7401637       -43.19534       0.01773715       -166.4704      0.003035392         75.8982
                     0.003035792        75.92159       0.01773708       -166.4711        0.7401576       -43.18961        0.0103139        46.76837
                     0.002104547        170.3843      0.004879564        84.07496      0.008165983        61.86815        0.7431291        12.81745
20.1                   0.7397509        8.786557      0.007976279        60.86922      0.004792905        79.85696      0.002199805        166.8022
                     0.009869005        43.90429         0.740041       -47.10176       0.01787522       -169.1644      0.002996054        74.74805
                     0.002996592        74.77077       0.01787514       -169.1651        0.7400346       -47.09564      0.009867713        43.91039
                     0.002199712        166.8015      0.004794488        79.84241      0.007972863        60.88255        0.7399502        8.803832
20.125                 0.7368508        4.742492      0.007841109        60.00297      0.004695992        75.95274      0.002311612        163.0626
                     0.009436977        41.35383        0.7402092       -51.02334       0.01807671       -171.8606      0.002975119        73.99166
                     0.002975794        74.01294       0.01807661       -171.8613        0.7402027       -51.01682      0.009435534        41.36026
                     0.002311513        163.0623      0.004697481        75.93502      0.007837775        60.02061         0.737049         4.76006
20.15                   0.734241       0.6673344      0.007763703        59.16667      0.004592114        72.40732      0.002439315        159.1057
                     0.009026983        39.13279        0.7406777       -54.95895       0.01834102        -174.599       0.00297847        73.53308
                     0.002979274        73.55211        0.0183409       -174.5997        0.7406709       -54.95202      0.009025385        39.13983
                     0.002439214        159.1056      0.004593463        72.38644      0.007760551        59.18849         0.734438       0.6852055
20.175                 0.7319315       -3.439562      0.007741336        58.26527      0.004486867        69.24885      0.002581611        154.8926
                     0.008647232        37.25424        0.7414528       -58.90743       0.01866521       -177.4162        0.0030108         73.2334
                     0.003011712        73.24949       0.01866508       -177.4169        0.7414458       -58.90008      0.008645485        37.26218
                     0.002581508        154.8927       0.00448803        69.22493      0.007738456        58.29087        0.7321276        -3.42138
20.2                     0.72993       -7.578523      0.007769011        57.21223       0.00438643        66.49498      0.002736756        150.4048
                     0.008305861        35.71776         0.742539       -62.86763       0.01904424        179.6565      0.003074996        72.92681
                     0.003075987         72.9395       0.01904409        179.6558        0.7425317       -62.85986      0.008303976        35.72697
                     0.002736654        150.4051      0.004387363        66.46834      0.007766473        57.24102         0.730125       -7.560023
20.225                 0.7282413       -11.74952      0.007839982        55.93757      0.004297382        64.14628      0.002902694        145.6404
                     0.008010547        34.50449        0.7439372       -66.83837       0.01947121        176.5952      0.003171791        72.44567
                     0.003172822        72.45479       0.01947104        176.5946        0.7439295       -66.83019      0.008008545        34.51535
                     0.002902593        145.6409      0.004298047        64.11743      0.007837839        55.96882        0.7284353        -11.7307
20.25                  0.7268688       -15.95215      0.007946423        54.39205      0.004226402        62.17909      0.003077164        140.6098
                     0.007768005        33.57296        0.7456458       -70.81845        0.0199378        173.3832      0.003299762        71.64596
                     0.003300795         71.6517       0.01993762        173.3825        0.7456378       -70.80987      0.007765918        33.58585
                     0.003077066        140.6104      0.004226767        62.14873      0.007944701        54.42503        0.7270617       -15.93302
20.275                 0.7258132       -20.18565      0.008080084         52.5477      0.004179817        60.53968      0.003257789        135.3312
                     0.007583425         32.8575        0.7476602        -74.8067       0.02043466         170.011      0.003455679        70.42467
                     0.003456677        70.42741       0.02043447        170.0104        0.7476518       -74.79767      0.007581291        32.87276
                     0.003257695        135.3318      0.004179864        60.50878      0.008078792        52.58169        0.7260052        -20.1662
20.3                   0.7250741       -24.44883      0.008232851        50.39525      0.004163068        59.14244      0.003442143        129.8273
                     0.007459931        32.27062        0.7499728       -78.80183       0.02095183        166.4757      0.003635038        68.72487
                     0.003635967        68.72513       0.02095161        166.4751        0.7499639       -78.79239      0.007457797        32.28847
                     0.003442054         129.828      0.004162795        59.11208      0.008231985        50.42964        0.7252652       -24.42908
20.325                 0.7246495       -28.74015      0.008397184        47.94011      0.004180142        57.87423        0.0036278        124.1228
                     0.007398195        31.71011         0.752573       -82.80261       0.02147904          162.78      0.003832621         66.5305
                     0.003833453        66.52889       0.02147881        162.7793        0.7525636       -82.79278      0.007396109        31.73063
                     0.003627717        124.1235      0.004179566        57.84549      0.008396716        47.97439        0.7248397       -28.72011
20.35                   0.724536       -33.05771      0.008566359        45.19802       0.00423312        56.60584      0.003812371        118.2426
                     0.007396315        31.06969        0.7554473       -86.80773       0.02200608        158.9307      0.004042967        63.85599
                      0.00404368        63.85306       0.02200585        158.9301        0.7554375       -86.79747      0.007394328         31.0928
                     0.003812294        118.2433      0.004232274        56.57971      0.008566263        45.23181        0.7247253       -33.03738
20.375                 0.7247293       -37.39924      0.008734635        42.19113      0.004321957        55.20815      0.003993532        112.2106
                     0.007450024        30.25076        0.7585797        -90.8159       0.02252301         154.938      0.004260706        60.73501
                     0.004261283        60.73125       0.02252277        154.9374        0.7585693       -90.80522      0.007448178        30.27626
                     0.003993463        112.2113      0.004320889        55.18537      0.008734871        42.22412        0.7249175       -37.37865
20.4                   0.7252238       -41.76221      0.008897284        38.94477      0.004444564        53.56809      0.004169046        106.0493
                     0.007553156        29.17208        0.7619513        -94.8257       0.02302035        150.8144      0.004480765        57.21124
                     0.004481195        57.20708        0.0230201        150.8138        0.7619404       -94.81463      0.007551489        29.19965
                     0.004168986          106.05      0.004443331        53.54907      0.008897809         38.9768         0.725411       -41.74136
20.425                 0.7260135       -46.14379       0.00905058         35.4854      0.004597145        51.60004      0.004336784        99.77959
                     0.007698304        27.77524        0.7655414       -98.83574       0.02348925        146.5739      0.004698483        53.33176
                      0.00469876        53.32752       0.02348899        146.5733        0.7655299        -98.8243      0.007696848        27.80451
                     0.004336733        99.78029      0.004595812        51.58487      0.009051347        35.51633        0.7261997       -46.12271
20.45                  0.7270913       -50.54095      0.009191734        31.83885      0.004774696        49.25024      0.004494738        93.42039
                     0.007877484        26.02556        0.7693267       -102.8446       0.02392157        142.2314      0.004909663        49.14292
                     0.004909784         49.1389        0.0239213        142.2307        0.7693145       -102.8329      0.007876256        26.05616
                     0.004494696        93.42105      0.004773322        49.23876      0.009192699        31.86867        0.7272763       -50.51968
20.475                 0.7284496       -54.95049      0.009318825        28.02956      0.004971513        46.49479       0.00464104        86.98895
                     0.008082704        23.90945        0.7732823        -106.851       0.02430998        137.8021      0.005110583        44.68817
                     0.005110546        44.68459       0.02430971        137.8015        0.7732695       -106.8388      0.008081718        23.94101
                     0.004641008        86.98955      0.004970158        46.48664      0.009319944        28.05825        0.7286333       -54.92904
20.5                   0.7300799        -59.3691      0.009430703         24.0799      0.005181648        43.33378      0.004773974        80.50093
                       0.0083064        21.42976        0.7773817       -110.8532       0.02464804        133.3018      0.005297992        40.00703
                     0.005297803        40.00406       0.02464777        133.3012        0.7773683       -110.8406       0.00830566        21.46199
                     0.004773954         80.5015      0.005180364        43.32853      0.009431932        24.10751        0.7302625       -59.34749
20.525                 0.7319736       -63.79338      0.009526904        20.00997      0.005399242        39.78417      0.004891989        73.97062
                     0.008541706        18.60083        0.7815975       -114.8499       0.02493023        128.7458      0.005469101        35.13484
                     0.005468765        35.13262       0.02492994        128.7452        0.7815835        -114.837      0.008541208        18.63345
                     0.004891979         73.9711      0.005398074        39.78132      0.009528204        20.03658         0.732155       -63.77162
20.55                   0.734121       -68.21992      0.009607553        15.83748      0.005618744        35.87315      0.004993712        67.41105
                     0.008782592          15.444        0.7859013       -118.8396       0.02515195        124.1497      0.005621564        30.10296
                     0.005621088        30.10161       0.02515166        124.1491        0.7858867       -118.8263      0.008782331        15.47681
                     0.004993713        67.41147      0.005617728        35.87224      0.009608887         15.8632        0.7343011       -68.19806
20.575                 0.7365121       -72.64538      0.009673282        11.57777      0.005835036        31.63303      0.005077959        60.83427
                     0.009023904        11.98413        0.7902642       -122.8207       0.02530961        119.5289       0.00575346        24.93915
                     0.005752853        24.93876       0.02530933        119.5282        0.7902489       -122.8071       0.00902387        12.01698
                     0.005077971        60.83463      0.005834201        31.63359      0.009674614        11.60273        0.7366908       -72.62344
20.6                   0.7391359       -77.06654      0.009725141        7.243853      0.006043501        27.09754       0.00514374        54.25155
                     0.009261346        8.247154        0.7946571       -126.7919       0.02540064        114.8984       0.00586328        19.66801
                     0.005862553        19.66867       0.02540035        114.8978        0.7946412        -126.778      0.009261526        8.279926
                     0.005143765        54.25181      0.006042872        27.09919      0.009726443        7.268184        0.7393132       -77.04453
20.625                 0.7419812       -81.48021      0.009764521        2.846488      0.006240036        22.29964      0.005190273        47.67346
                     0.009491416        4.258454        0.7990513       -130.7517       0.02542344        110.2738      0.005949906        14.31153
                     0.005949073        14.31329       0.02542315        110.2731        0.7990348       -130.7375      0.009491795        4.291069
                     0.005190309        47.67362       0.00623963        22.30202      0.009765768        2.870355         0.742157       -81.45818
20.65                  0.7450357       -85.88344      0.009793072       -1.605688      0.006421049        17.27018      0.005216983        41.11016
                     0.009711332      0.04194732        0.8034185       -134.6986       0.02537751        105.6703      0.006012602        8.889425
                     0.006011676        8.892354       0.02537722        105.6697        0.8034015       -134.6841      0.009711894       0.0743579
                     0.005217032        41.11021      0.006420878        17.27299      0.009794244       -1.582119          0.74521       -85.86139
20.675                 0.7482868       -90.27349      0.009812643       -6.106073      0.006583443        12.03732      0.005223511        34.57149
                     0.009918954       -4.380376        0.8077312       -138.6313       0.02526335        101.1036      0.006050991        3.419663
                     0.006049987        3.423805       0.02526307        101.1029        0.8077137       -138.6165       0.00991968       -4.348197
                     0.005223571        34.57145      0.006583516        12.04031      0.009813722        -6.08263        0.7484596       -90.25146
20.7                   0.7517208       -94.64778      0.009825199       -10.64998       0.00672459        6.626382      0.005209713        28.06722
                       0.0101127       -8.988605        0.8119633       -142.5484       0.02508258        96.58961      0.006065041       -2.081229
                     0.006063974       -2.075832       0.02508229        96.58893        0.8119454       -142.5333       0.01011357       -8.956667
                     0.005209784        28.06707       0.00672491        6.629314      0.009826177       -10.62649         0.751892        -94.6258
20.725                 0.7553235        -99.0041      0.009832767       -15.23453      0.006842307          1.0599      0.005175661        21.60716
                      0.01029146       -13.76487          0.81609       -146.4487       0.02483787        92.14468      0.006055049       -7.597822
                     0.006053935       -7.591129       0.02483759        92.14401        0.8160717       -146.4334       0.01029246       -13.73317
                     0.005175743        21.60688      0.006842873        1.062577      0.009833636       -15.21081        0.7554932       -98.98218
20.75                  0.7590796       -103.3405      0.009837375       -19.85846      0.006934831        -4.64212      0.005121642        15.20134
                      0.01045455       -18.69317        0.8200883        -150.331       0.02453301         87.7857      0.006021619       -13.11549
                     0.006020475       -13.10747       0.02453273        87.78501        0.8200696       -150.3154       0.01045567        -18.6617
                     0.005121735        15.20092       0.00693564       -4.639869      0.009838134       -19.83435        0.7592479       -103.3186
20.775                 0.7629734        -107.655      0.009840998       -24.52203      0.007000794       -10.46192      0.005048154        8.860193
                      0.01060165       -23.75919         0.823937       -154.1942        0.0241729        83.53006      0.005965646       -18.62015
                     0.005964489       -18.61077       0.02417262        83.52938        0.8239181       -154.1783       0.01060287       -23.72792
                     0.005048255        8.859622      0.007001842       -10.46024      0.009841651       -24.49736        0.7631402       -107.6333
20.8                    0.766988       -111.9465      0.009845512       -29.22677      0.007039206       -16.38365      0.004955899        2.594775
                      0.01073272       -28.95003        0.8276171       -158.0371       0.02376356        79.39574      0.005888292       -24.09807
                     0.005887139       -24.08732       0.02376329        79.39505        0.8275979        -158.021       0.01073402       -28.91893
                      0.00495601        2.594042      0.007040482        -16.3827      0.009846063        -29.2014        0.7671533       -111.9248
20.825                 0.7711057       -116.2136      0.009852648       -33.97529      0.007049427       -22.39308      0.004845781       -3.583056
                      0.01084798         -34.254        0.8311118        -161.859       0.02331218        75.40104      0.005790968       -29.53566
                     0.005789834        -29.5235        0.0233119        75.40035        0.8310926       -161.8426       0.01084934       -34.22304
                     0.004845901       -3.583967       0.00705092       -22.39298      0.009853111       -33.94907        0.7712696        -116.192
20.85                   0.775308       -120.4554      0.009863967       -38.77105       0.00703115       -28.47727      0.004718896       -9.660393
                      0.01094783       -39.66036        0.8344067       -165.6589       0.02282703        71.56447      0.005675306       -34.91929
                     0.005674209       -34.90572       0.02282676        71.56375        0.8343877       -165.6422       0.01094924        -39.6295
                     0.004719023       -9.661503      0.007032847       -28.47814      0.009864353       -38.74386        0.7754706        -120.434
20.875                 0.7795756       -124.6713      0.009880825         -43.618      0.006984379       -34.62428      0.004576521       -15.62303
                      0.01103287       -45.15911        0.8374902       -169.4361       0.02231753        67.90414      0.005543142       -40.23519
                     0.005542095       -40.22021       0.02231726        67.90343        0.8374711       -169.4192       0.01103431       -45.12834
                     0.004576654       -15.62436      0.006986265       -34.62625      0.009881148       -43.58978        0.7797368         -124.65
20.9                   0.7838882       -128.8608      0.009904355       -48.52042      0.006909416       -40.82287      0.004420107       -21.45516
                      0.01110379       -50.74085        0.8403524       -173.1902       0.02179415        64.43724      0.005396483       -45.46939
                     0.005395502         -45.453       0.02179388         64.4365        0.8403335        -173.173       0.01110525        -50.7101
                     0.004420246       -21.45673      0.006911475       -40.82605      0.009904637       -48.49107        0.7840483       -128.8397
20.925                 0.7882249       -133.0238      0.009935459       -53.48252      0.006806833       -47.06221      0.004251269       -27.13907
                       0.0111614       -56.39652        0.8429865       -176.9205       0.02126831        61.17891      0.005237489       -50.60763
                     0.005236587       -50.58986       0.02126805        61.17817         0.842968       -176.9032       0.01116286       -56.36576
                      0.00425141        -27.1409      0.006809047       -47.06671      0.009935718       -53.45204        0.7883842       -133.0029
20.95                  0.7925642       -137.1602      0.009974798       -58.50831       0.00667746       -53.33159      0.004071769       -32.65474
                      0.01120655       -62.11728        0.8453877        179.3732       0.02075229        58.14099      0.005068438       -55.63545
                     0.005067628       -55.61636       0.02075203        58.14026        0.8453698        179.3907       0.01120802        -62.0865
                     0.004071912       -32.65687      0.006679808       -53.33755      0.009975052        -58.4766        0.7927226       -137.1395
20.975                 0.7968835       -141.2702       0.01002279       -63.60098      0.006522363       -59.62015      0.003883515        -37.9795
                      0.01124015       -67.89443        0.8475539         175.691       0.02025889         55.3304      0.004891705       -60.53827
                     0.004890996        -60.5179       0.02025864        55.32966        0.8475364        175.7088        0.0112416       -67.86358
                     0.003883658       -37.98196      0.006524825       -59.62769       0.01002306        -63.5681        0.7970411       -141.2497
21                     0.8011602       -145.3541       0.01007962       -68.76319      0.006342828        -65.9164       0.00368854       -43.08756
                       0.0112631       -73.71923        0.8494845        172.0331       0.01980119        52.74717      0.004709724       -65.30164
                     0.004709125       -65.28007       0.01980094        52.74644        0.8494678         172.051       0.01126453       -73.68833
                      0.00368868       -43.09041      0.006345383        -65.9257       0.01007993        -68.7292        0.8013173       -145.3337
21.025                 0.8053712       -149.4122       0.01014524       -73.99644      0.006140342       -72.20804      0.003488997       -47.94968
                      0.01127631       -79.58295        0.8511815        168.3991       0.01939202        50.38266       0.00452496       -69.91159
                     0.004524478       -69.88895       0.01939177        50.38192        0.8511657        168.4172        0.0112777        -79.5519
                     0.003489133       -47.95296      0.006142966        -72.2192        0.0101456       -73.96138        0.8055278        -149.392
21.05                  0.8094931       -153.4451        0.0102194       -79.30116      0.005916578        -78.4812      0.003287145       -52.53276
                      0.01128063       -85.47658        0.8526483         164.789       0.01904343        48.21782      0.004339871        -74.3552
                      0.00433951       -74.33161       0.01904318         48.2171        0.8526333        164.8072       0.01128199        -85.4454
                     0.003287274       -52.53647      0.005919249       -78.49449       0.01021983       -79.26509        0.8096494       -153.4251
21.075                 0.8135027       -157.4534       0.01030162       -84.67657      0.005673379       -84.72021      0.003085339       -56.79965
                       0.0112769       -91.39095        0.8538896        161.2021       0.01876603        46.22241      0.004156866       -78.62122
                     0.004156627       -78.59689       0.01876578        46.22169        0.8538757        161.2205       0.01127822       -91.35957
                     0.003085459       -56.80394      0.005676071       -84.73573       0.01030214       -84.63959        0.8136589       -157.4336
21.1                   0.8173766       -161.4377       0.01039126       -90.12059      0.005412745       -90.90646      0.002886014       -60.70953
                      0.01126588       -97.31674        0.8549117        157.6378        0.0185683        44.35521      0.003978264       -82.70117
                     0.003978146       -82.67636       0.01856806         44.3545        0.8548989        157.6564       0.01126715       -97.28517
                     0.002886122       -60.71434      0.005415432        -90.9245       0.01039187       -90.08282        0.8175329       -161.4182
21.125                 0.8210924       -165.3987       0.01048746       -95.63003      0.005136823       -97.01771      0.002691671       -64.21831
                      0.01124827       -103.2443        0.8557217        154.0955       0.01845597         42.5658      0.003806241       -86.59023
                     0.003806239       -86.56517       0.01845573        42.56511        0.8557099        154.1142        0.0112495       -103.2126
                     0.002691763       -64.22375      0.005139482       -97.03856       0.01048819       -95.59162         0.821249       -165.3794
21.15                  0.8246282       -169.3371       0.01058923       -101.2005       0.00484791       -103.0267      0.002504844        -67.2806
                       0.0112247        -109.164        0.8563271        150.5741       0.01843155        40.79783      0.003642775       -90.28851
                     0.003642881       -90.26348       0.01843131        40.79716        0.8563166         150.593       0.01122588       -109.1321
                     0.002504917       -67.28672      0.004850511       -103.0507       0.01059008       -101.1615         0.824785        -169.318
21.175                 0.8279629       -173.2537       0.01069541       -106.8265      0.004548448       -108.8996      0.002328065       -69.85293
                      0.01119574       -115.0658         0.856736        147.0726       0.01849409        38.99322      0.003489591       -93.80218
                     0.003489793       -93.77754       0.01849385        38.99256         0.856727        147.0916       0.01119687       -115.0337
                     0.002328115       -69.85973      0.004550963        -108.927       0.01069639       -106.7871        0.8281203       -173.2348
21.2                   0.8310767        -177.149        0.0108047       -112.5016      0.004241045       -114.5931      0.002163796       -71.89844
                      0.01116187       -120.9396        0.8569564        143.5898       0.01863931        37.09684      0.003348101       -97.14445