! TOUCHSTONE file generated by CST MICROWAVE STUDIO
! Date and time: Sat Jun  8 23:23:03 2024
! Project name: Final_26GHz_linear.cst
! Parameters = {tand=0.0037; Connector_spacing=15.33; Coplanar_gap=0.425; Distance_inner=4.78238; Distance_outer=14.3471; L=2.756; L_pad=5; Length_strip_inner=24.3248; Length_strip_outer=27.8328; Pad_via_diameter=2.1; Pad_via_x_centre=3.75; Pad_via_z_centre=2.8; Patch_spacing=5.76524; Via_diameter=0.4; Via_spacing=0.8; W=2.756; W_PCB=70; W_line_50=1.15; W_line_small=0.1; W_pad=6; c=2.99792e+08; er=3.66; extra_distance_z=30; f=2.6e+10; k=3.99; lambda_0=11.5305; t_copper=0.012; t_substrate=0.508; theta_inner=11.3385; theta_outer=31.0293; x_triangle_inner=0.563778; x_triangle_outer=0.49272; z_Line=23.85; z_triangle_inner=0.113048; z_triangle_outer=0.296399}
! Header version: 2024
! Port assignment regex: !\s*Touchstone port\s*([0-9]+)\s*=\s*(CST MWS port|CST DES external port|CST DES block port)\s*(.+)\s* \(\"(.*)\"\)(\s*mode\s*([0-9]+))?.*
! Touchstone port assignment:
! Touchstone port 1 = CST MWS port 1 ("")
! Touchstone port 2 = CST MWS port 2 ("")
! Touchstone port 3 = CST MWS port 3 ("")
! Touchstone port 4 = CST MWS port 4 ("")
# GHz S MA R 50
20                     0.8244455          99.244       0.01571822        136.1129      0.001491744        174.3181      0.001018754        141.0461
                      0.01183503        139.0413        0.7918382        39.93971       0.02006202       -83.68869      0.004340639        131.7602
                      0.00433924        131.7701       0.02006212       -83.68888        0.7918415        39.94678       0.01183414        139.0386
                     0.001018808        141.0478      0.001490801         174.299       0.01572085        136.1232        0.8246407        99.25706
20.025                 0.8218079        95.74571       0.01552101        131.6513      0.001834862        174.2855     0.0008910118        118.6785
                      0.01217234        137.9094         0.789297        36.74855        0.0200057       -88.11319      0.004439955         124.639
                     0.004438416        124.6495       0.02000581       -88.11335        0.7893011        36.75575       0.01217093        137.9084
                    0.0008910547        118.6811      0.001834033        174.2752       0.01552357        131.6602        0.8220016        95.75863
20.05                  0.8191847        92.25216       0.01528372        127.3438      0.002194473        171.7806       0.00082084        92.85045
                      0.01260587        136.3546        0.7867414        33.53044       0.01991605       -92.50391      0.004503385        117.5878
                      0.00450172        117.5991       0.01991616       -92.50406        0.7867463        33.53778       0.01260403        136.3556
                    0.0008208665        92.85389      0.002193798        171.7743       0.01528615        127.3514        0.8193771        92.26493
20.075                 0.8165792        88.75937        0.0150134        123.2119      0.002556843        167.8093     0.0008264583        65.48264
                      0.01311421        134.3227        0.7841528        30.28499       0.01979513       -96.83987      0.004529666        110.6184
                     0.004527887        110.6307       0.01979525       -96.84001        0.7841584        30.29248       0.01311204         134.326
                    0.0008264663        65.48631      0.002556338        167.8047       0.01501566        123.2181        0.8167702        88.77206
20.1                   0.8139891        85.26361       0.01471816        119.2752      0.002912971        162.9374     0.0009085558        39.75337
                      0.01367463        131.8018        0.7815158        27.01222        0.0196461       -101.1004       0.00451793        103.7445
                     0.004516055        103.7579       0.01964623       -101.1005         0.781522        27.01986       0.01367223        131.8073
                    0.0009085474        39.75653      0.002912642        162.9333       0.01472017          119.28         0.814179        85.27621
20.125                 0.8114079        81.76131       0.01440696         115.551      0.003256209         157.495      0.001050381        17.49052
                      0.01426472        128.8101        0.7788194         23.7125       0.01947321       -105.2655      0.004467735        96.98303
                     0.004465781        96.99778       0.01947336       -105.2656        0.7788261         23.7203        0.0142622        128.8176
                     0.001050361        17.49295      0.003256056        157.4908       0.01440867        115.5545        0.8115965        81.77384
20.15                  0.8088251         78.2491       0.01408942        112.0522      0.003581217        151.6851      0.001231759       -1.397444
                      0.01486347        125.3842        0.7760574        20.38651       0.01928176       -109.3161      0.004379084        90.35571
                     0.004377071        90.37206       0.01928192       -109.3163        0.7760645        20.39448       0.01486092        125.3936
                     0.001231732       -1.395665      0.003581236        151.6804        0.0140908        112.0546        0.8090125        78.26158
20.175                 0.8062268        74.72394       0.01377562        108.7863      0.003883497        145.6392       0.00143756       -17.72247
                       0.0154518          121.57        0.7732287        17.03515        0.0190781        -113.235       0.00425246        83.89063
                      0.00425041        83.90888       0.01907827       -113.2352        0.7732361        17.04331       0.01544928         121.581
                     0.001437529       -17.72116      0.003883679        145.6339       0.01377662        108.7878        0.8064133        74.73641
20.2                   0.8035969        71.18313       0.01347566        105.7529      0.004159172        139.4472      0.001658109       -32.24793
                      0.01601274        117.4158        0.7703378        13.65952       0.01886951        -117.007      0.004088859         77.6252
                     0.004086795        77.64573       0.01886969       -117.0072        0.7703454        13.66787       0.01601034        117.4283
                     0.001658075       -32.24696       0.00415951        139.4411       0.01347625        105.7536        0.8037826        71.19559
20.225                 0.8009184        67.62436       0.01319932        102.9421      0.004404902        133.1738      0.001887359       -45.52046
                       0.0165315         112.969        0.7673947        10.26081       0.01866415       -120.6206      0.003889841        71.61029
                     0.003887788        71.63356       0.01866434       -120.6208        0.7674023        10.26937       0.01652925        112.9826
                     0.001887323       -45.51975      0.004405385        133.1669       0.01319947        102.9424        0.8011032        67.63681
20.25                  0.7981734        64.04564       0.01295546        100.3328      0.004617852        126.8689      0.002121384       -57.90364
                       0.0169953        108.2737        0.7644144        6.840251       0.01847086       -124.0682      0.003657614        65.91676
                     0.003655602        65.94342       0.01847106       -124.0685        0.7644219        6.849039       0.01699326        108.2883
                     0.002121347       -57.90309      0.004618466        126.8609       0.01295517         100.333        0.7983574        64.05814
20.275                 0.7953447        60.44546       0.01275153        97.89252      0.004795686        120.5725      0.002357469       -69.63645
                      0.01739334          103.37         0.761417        3.399055       0.01829894       -127.3481      0.003395169        60.64592
                     0.003393233        60.67677       0.01829914       -127.3485        0.7614243        3.408087       0.01739155        103.3854
                      0.00235743       -69.63604      0.004796416        120.5636       0.01275081        97.89307        0.7955282        60.45799
20.3                    0.792417        56.82268       0.01259301        95.57772      0.004936596          114.32      0.002593584       -80.87769
                      0.01771661        98.29438        0.7584271     -0.06165097       0.01815783        -130.465       0.00310652        55.94653
                       0.0031047        55.98268       0.01815804       -130.4655        0.7584339     -0.05235626       0.01771509        98.31039
                     0.002593544       -80.87736      0.004937426          114.31       0.01259189        95.57902        0.7925997        56.83526
20.325                 0.7893767        53.17648       0.01248297        93.33649       0.00503933         108.144      0.002828093       -91.73465
                      0.01795778        93.07949        0.7554728       -3.540876       0.01805678       -133.4309      0.002797135        52.04338
                     0.002795481        52.08634       0.01805698       -133.4314         0.755479         -3.5313       0.01795655        93.09596
                     0.002828052       -91.73443      0.005040241        108.1328        0.0124815        93.33891        0.7895591        53.18913
20.35                  0.7862142        49.50647       0.01242182        91.11217      0.005103229        102.0769      0.003059581       -102.2813
                      0.01811116        87.75514        0.7525853       -7.037809       0.01800434       -136.2656      0.002474743        49.28488
                     0.002473321        49.33668       0.01800453       -136.2663        0.7525911       -7.027932       0.01811024        87.77196
                     0.003059539       -102.2812        0.0051042        102.0645       0.01242004        91.11602        0.7863959        49.51921
20.375                 0.7829227        45.81254       0.01240722        88.84807       0.00512828        96.15271      0.003286748       -112.5695
                      0.01817255        82.34885        0.7497983       -10.55186       0.01800795       -138.9966      0.002150892        48.21814
                     0.002149792        48.28135       0.01800813       -138.9974        0.7498032       -10.54166       0.01817194        82.36588
                     0.003286704       -112.5694      0.005129291        96.13894       0.01240521        88.85361        0.7831041        45.82538
20.4                   0.7795002         42.0949       0.01243432         86.4922      0.005115173        90.40847      0.003508352       -122.6359
                      0.01813922        76.88654        0.7471463       -14.08268       0.01807347       -141.6574      0.001843884         49.6799
                     0.001843235        49.75695       0.01807364       -141.6583        0.7471504       -14.07214       0.01813892        76.90367
                     0.003508306       -122.6359      0.005116199        90.39333       0.01243215        86.49955        0.7796813        42.10783
20.425                 0.7759494        38.35394       0.01249612        84.00118      0.005065373        84.88626      0.003723167       -132.5072
                      0.01800984        71.39331        0.7446644       -17.63018       0.01820478       -144.2861      0.001583587        54.77053
                     0.001583553        54.86081       0.01820493       -144.2871        0.7446677       -17.61928       0.01800985        71.41043
                     0.003723119       -132.5072      0.005066391        84.86967       0.01249387        84.01039        0.7761298          38.367
20.45                  0.7722772        34.59033       0.01258408        81.34275      0.004981209        79.63465      0.003929968       -142.2025
                      0.01778449        65.89423         0.742387       -21.19454       0.01840353       -146.9227       0.00141522        64.20358
                     0.001415948        64.29673       0.01840365       -146.9238        0.7423894       -21.18325       0.01778479        65.91124
                     0.003929918       -142.2025      0.004982192        79.61651       0.01258182         81.3538        0.7724574         34.6035
20.475                  0.768496        30.80483       0.01268866        78.49675      0.004865989        74.71045       0.00412752        -151.736
                      0.01746455         60.4152        0.7403471       -24.77617       0.01866899       -149.6061      0.001387969        76.54912
                     0.001389424        76.62354       0.01866909       -149.6073        0.7403485       -24.76448       0.01746513        60.43197
                     0.004127468        -151.736       0.00486691        74.69069       0.01268646        78.50949        0.7686757        30.81814
20.5                   0.7646228        26.99833       0.01279994        75.45465      0.004724137         70.1801      0.004314574       -161.1177
                      0.01705276        54.98392        0.7385751       -28.37572       0.01899814       -152.3719      0.001518695        87.84759
                     0.001520594        87.89008       0.01899821       -152.3731        0.7385757        -28.3636       0.01705359        55.00034
                      0.00431452       -161.1178      0.004724966        70.15869       0.01279787        75.46895        0.7648018         27.0118
20.525                 0.7606789         23.1718       0.01290819        72.21827       0.00456137        66.12044       0.00448988       -170.3552
                       0.0165532        49.63103        0.7370987       -31.99404       0.01938586       -155.2499      0.001776528        95.17518
                      0.00177855        95.19154       0.01938589       -155.2511        0.7370983       -31.98148       0.01655426        49.64696
                     0.004489825       -170.3554      0.004562079        66.09738       0.01290629        72.23389        0.7608575        23.18543
20.55                  0.7566905        19.32618       0.01300421        68.79795        0.0043849         62.6175      0.004652191       -179.4535
                      0.01597133         44.3915        0.7359414        -35.6321       0.01982522       -158.2628       0.00211502         98.4276
                     0.002116971        98.42884       0.01982521       -158.2641        0.7359399       -35.61909       0.01597258        44.40682
                     0.004652134       -179.4537      0.004385459        62.59287       0.01300251        68.81469        0.7568684        19.33998
20.575                 0.7526869        15.46242       0.01307972        65.21071      0.004203632        59.76181      0.004800283        171.5839
                      0.01531403        39.30639         0.735122         -39.291       0.02030793       -161.4262      0.002498163        98.66658
                     0.002499949        98.66034       0.02030788       -161.4275        0.7351197       -39.27751       0.01531543        39.32095
                     0.004800224        171.5837      0.004204014         59.7358       0.01307825        65.22833        0.7528642        15.47639
20.6                   0.7487013        11.58137       0.01312756        61.47856      0.004028304        57.63723      0.004932964        162.7553
                      0.01458971          34.425        0.7346553       -42.97182       0.02082469       -164.7481      0.002902788        96.88515
                     0.002904369        96.87563        0.0208246       -164.7494        0.7346521       -42.95786       0.01459123        34.43861
                     0.004932904         162.755      0.004028483        57.61023       0.01312635        61.49686         0.748878        11.59553
20.625                 0.7447691         7.68382       0.01314187         57.6272      0.003871408        56.30029      0.005049104        154.0599
                      0.01380853        29.80764        0.7345503       -46.67566       0.02136563         -168.23      0.003314053        93.76608
                     0.003315412        93.75542       0.02136551       -168.2313        0.7345463       -46.66121        0.0138101        29.82013
                     0.005049042        154.0596      0.003871369        56.27295       0.01314092        57.64597         0.744945        7.698179
20.65                  0.7409282        3.770396        0.0131182         53.6851      0.003746696        55.74907      0.005147644        145.4984
                      0.01298261        25.52908        0.7348112       -50.40348       0.02192066       -171.8682      0.003721841        89.74718
                     0.003722969        89.73646        0.0219205       -171.8695        0.7348063       -50.38854       0.01298418        25.54021
                     0.005147581         145.498      0.003746433         55.7223        0.0131175        53.70413        0.7411032         3.78496
20.675                 0.7372171      -0.1584118       0.01305352         49.6828      0.003668003        55.88791      0.005227631        137.0725
                      0.01212646        21.68249        0.7354366        -54.1561       0.02247975       -175.6544      0.004118723        85.10929
                     0.004119619        85.09911       0.02247956       -175.6557         0.735431       -54.14066       0.01212797        21.69202
                     0.005227566        137.0721       0.00366753        55.86281       0.01305307        49.70193        0.7373913      -0.1436345
20.7                   0.7336754        -4.10228       0.01294635        45.65263      0.003647346        56.50571      0.005288232        128.7851
                       0.0112576        18.38357        0.7364201       -57.93411       0.02303321       -179.5773      0.004498903        80.03689
                     0.004499568        80.02756       0.02303298       -179.5785        0.7364138       -57.91815       0.01125896        18.39124
                     0.005288166        128.7847      0.003646696        56.48341       0.01294612         45.6717        0.7338486       -4.087282
20.725                 0.7303419        -8.06106        0.0127967        41.62856       0.00369269        57.29195      0.005328761        120.6405
                      0.01039728        15.77303        0.7377508       -61.73779       0.02357186        176.3769      0.004857658        74.65504
                     0.004858095        74.64669       0.02357159        176.3757        0.7377437       -61.72134       0.01039842         15.7786
                     0.005328694        120.6401      0.003691916        57.27329       0.01279667        41.64741        0.7305141       -8.045836
20.75                  0.7272546       -12.03477       0.01260613        37.64614      0.003806284        57.89827      0.005348706        112.6443
                     0.009571537        14.01388        0.7394127       -65.56716       0.02408718        172.2233       0.00519105        69.05131
                     0.005191262        69.04405       0.02408688        172.2222        0.7394051        -65.5502      0.009572356         14.0172
                     0.005348639        112.6438      0.003805453        57.88354       0.01260627        37.66465        0.7274258       -12.01932
20.775                 0.7244496       -16.02361        0.0123778        33.74249      0.003984422        58.02027       0.00534775        104.8035
                     0.008812045        13.27556        0.7413863       -69.42183       0.02457144        167.9778       0.00549576        63.28929
                     0.005495755        63.28317       0.02457112        167.9767         0.741378       -69.40443      0.008812449         13.2767
                     0.005347683        104.8029      0.003983601        58.00923       0.01237807        33.76055        0.7246199       -16.00791
20.8                   0.7219606       -20.02789       0.01211641        29.95616      0.004218674        57.45603        0.0053258        97.12705
                     0.008156351        13.69269        0.7436483       -73.30109        0.0250178        163.6569      0.005769017        57.41673
                     0.005768801        57.41179       0.02501746        163.6558        0.7436394       -73.28322      0.008156242        13.69213
                     0.005325733        97.12645      0.004217925        57.44806       0.01211677        29.97366        0.7221299       -20.01196
20.825                  0.719818       -24.04807        0.0118283        26.32662      0.004497888        56.11837      0.005283012        89.62583
                     0.007645998        15.28772        0.7461729       -77.20386       0.02542034        159.2768      0.006008545        51.47084
                     0.006008126         51.4671       0.02541998        159.2758        0.7461634       -77.18552      0.007645304        15.28653
                     0.005282944        89.62517       0.00449726         56.1127       0.01182871        26.34353        0.7199861        -24.0319
20.85                  0.7180485       -28.08469       0.01152139        22.89345      0.004810029        54.01129      0.005219816        82.31301
                      0.00732085        17.87124        0.7489316       -81.12865       0.02577416         154.854      0.006212545        45.48176
                     0.006211935        45.47926       0.02577378         154.853        0.7489216       -81.10984      0.007319549        17.87116
                     0.005219748        82.31231       0.00480956        54.00713        0.0115218        22.90972        0.7182157       -28.06827
20.875                 0.7166746       -32.13832       0.01120518        19.69452      0.005143443        51.19442      0.005136947         75.2044
                     0.007209324         20.9875        0.7518948       -85.07358       0.02607538        150.4046      0.006379694        39.47492
                     0.006378905        39.47367       0.02607499        150.4036        0.7518842       -85.05433      0.007207467        20.99053
                     0.005136881        75.20367      0.005143157        51.19112       0.01120555        19.71015        0.7168407       -32.12166
20.9                    0.715714       -36.20956       0.01089067        16.76323      0.005487486         47.7526      0.005035477        68.31887
                     0.007318437        23.99723        0.7550314        -89.0365        0.0263212        145.9442      0.006509137        33.47268
                     0.006508183        33.47274       0.02632079        145.9432        0.7550203       -89.01685      0.007316146        24.00494
                     0.005035412        68.31808      0.005487397        47.74966       0.01089094        16.77831        0.7158792       -36.19265
20.925                 0.7151797       -40.29893       0.01059012        14.12455      0.005832745        43.77613      0.004916841        61.67864
                     0.007630612        26.29048        0.7583103       -93.01495        0.0265099        141.4881      0.006600494        27.49562
                     0.006599391        27.49702       0.02650949        141.4872        0.7582986       -92.99486      0.007628056         26.3035
                     0.004916776        61.67781      0.005832864        43.77314       0.01059026         14.1392        0.7153439       -40.28179
20.95                  0.7150796       -44.40688       0.01031674        11.78962      0.006171036        39.35009       0.00478288        55.30971
                     0.008110078        27.47709        0.7617008       -97.00618       0.02664089        137.0515      0.006653867        21.56342
                     0.006652631        21.56622       0.02664047        137.0506        0.7616884       -96.98573      0.008107424        27.49509
                     0.004782815        55.30882      0.006171364        39.34676       0.01031671        11.80405        0.7152428       -44.38952
20.975                  0.715416       -48.53376       0.01008413        9.749684      0.006495299        34.54997      0.004635871        49.24203
                     0.008713853        27.42931        0.7651726       -101.0072       0.02671468        132.6487      0.006669843        15.69566
                     0.006668493        15.69992       0.02671426        132.6479        0.7651597       -100.9864      0.008711243        27.45146
                     0.004635807        49.24108      0.006495834         34.5461        0.0100839         9.76419        0.7155783       -48.51616
21                     0.7161864       -52.67964      0.009905412        7.970447      0.006799483        29.44064      0.004478573        43.50951
                     0.009400648        26.20665        0.7686971        -105.015       0.02673291        128.2939      0.006649503        9.912462
                      0.00664806        9.918251       0.02673249        128.2931        0.7686835       -104.9939      0.009398188          26.232
                      0.00447851        43.50851       0.00680022        29.43607      0.009904978        7.985399        0.7163478       -52.66187
21.025                 0.7173827       -56.84454      0.009792264         6.38891      0.007078433        24.07706      0.004314262        38.14945
                      0.01013519        23.95786        0.7722475       -109.0263       0.02669832        124.0006      0.006594431        4.235067
                     0.006592916         4.24247        0.0266979        123.9998        0.7722333       -109.0048       0.01013296        23.98558
                       0.0043142        38.14842      0.007079364        24.07167      0.009791623        6.404716        0.7175433       -56.82651
21.05                  0.7189922         -61.028      0.009753774        4.914817      0.007327803        18.50555       0.00414676        33.20122
                      0.01088913        20.85292        0.7757992       -113.0379        0.0266147        119.7816      0.006506722       -1.313645
                     0.006505159       -1.304532       0.02661428        119.7808        0.7757844        -113.016       0.01088718        20.88234
                     0.004146699        33.20012      0.007328917        18.49925      0.009752949        4.931888         0.719152       -61.00982
21.075                 0.7209975       -65.22953      0.009795472        3.438076      0.007543985        12.76529      0.003980452        28.70349
                       0.0116403        17.04942        0.7793302       -117.0463        0.0264869        115.6491      0.006388991       -6.708689
                     0.006387405       -6.697763       0.02648648        115.6483        0.7793147       -117.0242       0.01163866        17.08006
                     0.003980391        28.70234       0.00754527        12.75801      0.009794496         3.45677        0.7211566       -65.21115
21.1                   0.7233768       -69.44817      0.009918726          1.8413      0.007724058        6.889669      0.003820249        24.68973
                      0.01237155        12.68101        0.7828214       -121.0485        0.0263207        111.6141      0.006244385        -11.9226
                     0.006242801       -11.90975       0.02632029        111.6133        0.7828053       -121.0261       0.01237025        12.71253
                     0.003820187        24.68854      0.007725499        6.881356      0.009917651        1.861875        0.7235352       -69.42964
21.125                 0.7261042       -73.68274        0.0101207      0.01435855      0.007865746       0.9075671      0.003671499        21.18134
                      0.01306968         7.85653        0.7862566       -125.0414        0.0261228        107.6863      0.006076594       -16.92519
                     0.006075041        -16.9103        0.0261224        107.6856        0.7862398       -125.0187       0.01306872         7.88867
                     0.003671436        21.18012      0.007867327       0.8981655       0.01011958      0.03694688        0.7262619        -73.6641
21.15                  0.7291505       -77.93179       0.01039484       -2.133177      0.007967396       -5.155634      0.003539785        18.17853
                      0.01372454        2.663112        0.7896228       -129.0218       0.02590059        103.8739      0.005889864       -21.68356
                     0.005888371       -21.66652        0.0259002        103.8732        0.7896054       -128.9989       0.01372394        2.695689
                     0.003539722        18.17727      0.007969099       -5.166174       0.01039374       -2.108573        0.7293078       -77.91301
21.175                 0.7324837       -82.19354       0.01073181       -4.664781      0.008027939       -11.27713      0.003430587        15.65016
                      0.01432842       -2.829679        0.7929103       -132.9871       0.02566212        100.1829      0.005689001       -26.16255
                     0.005687599       -26.14324       0.02566174        100.1821        0.7928923       -132.9639       0.01432818       -2.796791
                     0.003430523        15.64888      0.008029747       -11.28886       0.01073079       -4.638267        0.7326403       -82.17464
21.2                   0.7360689       -86.46594       0.01112053       -7.615655      0.008046889       -17.43592      0.003348807        13.52549
                      0.01487554       -8.566009        0.7961121       -136.9347        0.0254158        96.61668      0.005479375       -30.32576