! TOUCHSTONE file generated by CST MICROWAVE STUDIO
! Date and time: Fri Jun  7 22:58:35 2024
! Project name: Final_26GHz_linear.cst
! Parameters = {tand=0.0037; Connector_spacing=15.33; Coplanar_gap=0.4595; Distance_inner=4.78238; Distance_outer=14.3471; L=2.6; L_pad=5; Length_strip_inner=24.3924; Length_strip_outer=27.8919; Pad_via_diameter=2.1; Pad_via_x_centre=3.75; Pad_via_z_centre=2.8; Patch_spacing=5.76524; Via_diameter=0.4; Via_spacing=0.8; W=2.6; W_PCB=70; W_line_50=1.081; W_line_small=0.1; W_pad=6; c=2.99792e+08; er=3.66; extra_distance_z=30; f=2.6e+10; k=3.99; lambda_0=11.5305; t_copper=0.012; t_substrate=0.508; theta_inner=11.3067; theta_outer=30.9563; x_triangle_inner=0.53001; x_triangle_outer=0.463511; z_Line=23.919; z_triangle_inner=0.105971; z_triangle_outer=0.278024}
! Header version: 2024
! Port assignment regex: !\s*Touchstone port\s*([0-9]+)\s*=\s*(CST MWS port|CST DES external port|CST DES block port)\s*(.+)\s* \(\"(.*)\"\)(\s*mode\s*([0-9]+))?.*
! Touchstone port assignment:
! Touchstone port 1 = CST MWS port 1 ("")
! Touchstone port 2 = CST MWS port 2 ("")
! Touchstone port 3 = CST MWS port 3 ("")
! Touchstone port 4 = CST MWS port 4 ("")
# GHz S MA R 50
20                     0.8376735        107.3782       0.01258825        149.9279      0.003665143        163.9071     9.961588e-05       -23.46523
                       0.0136052        148.5584        0.8151675        46.28811       0.01822787       -80.36193      0.003284548        118.6772
                     0.003282914          118.68       0.01822821       -80.36067        0.8150524        46.27892       0.01360439        148.5575
                    9.964444e-05       -23.50573      0.003666039        163.9202       0.01258699        149.9161        0.8378707        107.3915
20.025                 0.8361952        103.7218       0.01255229        146.6474      0.003817922        157.6716     0.0002561526       -23.56853
                      0.01376988         144.923         0.812169        43.17869       0.01781592       -84.81802      0.003259143        113.8137
                     0.003257473        113.8187       0.01781627       -84.81673        0.8120543        43.16967       0.01376911         144.922
                    0.0002561687       -23.58658      0.003818974        157.6831       0.01255063        146.6361        0.8363911        103.7349
20.05                  0.8345449        100.0829       0.01252629        143.4174      0.003952719        151.4957     0.0004115349       -29.99597
                      0.01393072        141.2175        0.8090985        40.06426       0.01738335       -89.13189       0.00321919        109.1466
                       0.0032175         109.154       0.01738371       -89.13059        0.8089842        40.05542       0.01392998        141.2162
                    0.0004115453       -30.00818      0.003953918        151.5055       0.01252425        143.4069        0.8347394        100.0958
20.075                 0.8327268        96.45978       0.01251065        140.2237      0.004068231        145.3895     0.0005644586       -37.52304
                      0.01408407        137.4415         0.805967        36.94422       0.01693628       -93.28011      0.003165582        104.7027
                     0.003163892        104.7128       0.01693665       -93.27881        0.8058532        36.93555       0.01408336        137.4399
                    0.0005644639       -37.53258      0.004069568        145.3976       0.01250828        140.2142        0.8329202        96.47253
20.1                   0.8307455        92.85078       0.01250528        137.0518      0.004163343        139.3635     0.0007146047       -45.43536
                      0.01422629        133.5966        0.8027875         33.8179       0.01648155       -97.23897      0.003099533        100.5126
                     0.003097863        100.5257       0.01648193       -97.23769         0.802674         33.8094       0.01422559        133.5947
                    0.0007146045       -45.44337      0.004164808        139.3699       0.01250261        137.0436        0.8309376        92.86335
20.125                 0.8286054         89.2543       0.01250953        133.8879      0.004237149        133.4287     0.0008618088       -53.52211
                       0.0143538        129.6861        0.7995741        30.68459       0.01602683       -100.9853      0.003022607        96.61166
                     0.003020981        96.62794       0.01602723        -100.984        0.7994612        30.67626       0.01435312        129.6839
                    0.0008618028        -53.5291       0.00423873        133.4333       0.01250662         133.881        0.8287964         89.2667
20.15                  0.8263114        85.66879       0.01252229        130.7186      0.004288968        127.5972      0.001005975       -61.69526
                      0.01446323        125.7148        0.7963427        27.54354       0.01558057        -104.497       0.00293675        93.03924
                     0.002935194        93.05907       0.01558097       -104.4958        0.7962302        27.53536       0.01446253        125.7122
                     0.001005962       -61.70156       0.00429065        127.5999       0.01251919        130.7132        0.8265012          85.681
20.175                 0.8238688        82.09269       0.01254201         127.532      0.004318362        121.8826      0.001147047       -69.90886
                      0.01455137        121.6885          0.79311        24.39389       0.01515198       -107.7555      0.002844319        89.83888
                     0.002842862        89.86249        0.0151524       -107.7543        0.7929978        24.38587       0.01455066        121.6854
                     0.001147028        -69.9146      0.004320127        121.8833       0.01253877        127.5281        0.8240575        82.10476
20.2                   0.8212834        78.52458       0.01256672        124.3179      0.004325152        116.3006      0.001284997       -78.13441
                      0.01461532         117.614        0.7898935        21.23474       0.01475098       -110.7469       0.00274812        87.05652
                     0.002746792        87.08415        0.0147514       -110.7458        0.7897818        21.22687       0.01461458        117.6105
                     0.001284971       -78.13974      0.004326984        116.2992        0.0125634        124.3156         0.821471        78.53653
20.225                 0.8185619        74.96307       0.01259417        121.0679      0.004309451        110.8694      0.001419811       -86.35183
                      0.01465247        113.4992        0.7867116        18.06508       0.01438797       -113.4648      0.002651422        84.73772
                     0.002650256        84.76943       0.01438841       -113.4639        0.7866004        18.05735       0.01465168        113.4953
                     0.001419777       -86.35681      0.004311329        110.8656       0.01259082        121.0672        0.8187483        74.97486
20.25                  0.8157117        71.40673       0.01262183        117.7758      0.004271681        105.6104       0.00155148       -94.54543
                      0.01466058        109.3525         0.783583        14.88381        0.0140736       -115.9136      0.002557959        82.92241
                      0.00255699        82.95808       0.01407404       -115.9127         0.783472        14.87622       0.01465973        109.3481
                     0.001551437       -94.55013      0.004273583        105.6042       0.01261852        117.7765        0.8158969        71.41842
20.275                 0.8127412         67.8543       0.01264707        114.4374      0.004212611        100.5491      0.001679991       -102.7021
                      0.01463776        105.1831        0.7805262        11.68975       0.01381827       -118.1101      0.002471875        81.63709
                     0.002471134        81.67635       0.01381872       -118.1094        0.7804156         11.6823       0.01463685        105.1783
                     0.001679939       -102.7066      0.004214513        100.5404       0.01264383        114.4395        0.8129252        67.86589
20.3                   0.8096597        64.30448       0.01266714        111.0506      0.004133392        95.71598      0.001805322       -110.8105
                      0.01458256        101.0008        0.7775597        8.481624       0.01363169       -120.0864      0.002397587        80.88431
                     0.002397106        80.92634       0.01363213       -120.0858        0.7774493          8.4743       0.01458156        100.9956
                     0.001805261       -110.8147      0.004135268        95.70447       0.01266403         111.054        0.8098428        64.31596
20.325                 0.8064783        60.75598       0.01267933        107.6156      0.004035616        91.14719      0.001927436       -118.8602
                      0.01449393        96.81618        0.7747016        5.258077       0.01352213       -121.8895      0.002339545        80.63076
                     0.002339343        80.67441       0.01352258       -121.8891        0.7745913        5.250875       0.01449282        96.81052
                     0.001927365       -118.8642      0.004037437         91.1327       0.01267638        107.6201        0.8066601        60.76737
20.35                  0.8032081        57.20756       0.01268101        104.1342      0.003921369        86.88588      0.002046279       -126.8419
                      0.01437126        92.64033        0.7719688        2.017685       0.01349588       -123.5797      0.002301859        80.79809
                     0.002301948        80.84174       0.01349632       -123.5795        0.7718587        2.010601       0.01437005        92.63429
                     0.002046198       -126.8457      0.003923103        86.86817       0.01267825        104.1397        0.8033886        57.21889
20.375                 0.7998621        53.65798       0.01266968        100.6102      0.003793318        82.98292      0.002161776       -134.7469
                      0.01421444        88.48526        0.7693781       -1.241033       0.01355666       -125.2265      0.002287849        81.26105
                     0.002288224        81.30294       0.01355708       -125.2264         0.769268       -1.248006        0.0142131        88.47884
                     0.002161685       -134.7506       0.00379493        82.96176       0.01266715        100.6164        0.8000413        53.66924
20.4                    0.796454        50.10598       0.01264309         97.0488      0.003654809        79.49736      0.002273838       -142.5673
                      0.01402379        84.36374        0.7669442       -4.519596        0.0137053       -126.9023      0.002299605        81.85792
                     0.002300247         81.8962        0.0137057       -126.9024        0.7668341       -4.526463       0.01402232        84.35698
                     0.002273736       -142.5708      0.003656262        79.47259        0.0126408        97.05567        0.7966319        50.11721
20.425                 0.7929984        46.55032       0.01259922        93.45696      0.003509982        76.49582      0.002382358       -150.2958
                      0.01380015        80.28956        0.7646814       -7.819543       0.01393969       -128.6761      0.002337692         82.4126
                     0.002338564        82.44582       0.01394007       -128.6764         0.764571       -7.826309       0.01379854        80.28253
                     0.002382245       -150.2991      0.003511236        76.46736       0.01259719        93.46424        0.7931751        46.56152
20.45                   0.789511        42.98972       0.01253638        89.84279      0.003363892        74.04968       0.00248722       -157.9254
                      0.01354484        76.27763        0.7626016       -11.14241       0.01425503       -130.6073      0.002401108        82.76202
                     0.002402164        82.78923       0.01425539       -130.6078         0.762491       -11.14908        0.0135431        76.27039
                     0.002487096       -157.9286      0.003364905        74.01754       0.01253462        89.85033        0.7896864         43.0009
20.475                  0.786008        39.42289       0.01245325        86.21581      0.003222616        72.22842      0.002588302       -165.4502
                      0.01325973        72.34413        0.7607161       -14.48971       0.01464426       -132.7422      0.002487511        82.77884
                     0.002488698        82.79965       0.01464459       -132.7428        0.7606051       -14.49629       0.01325784        72.33674
                     0.002588167       -165.4532      0.003223345        72.19293       0.01245176         86.2234         0.786182        39.43407
20.5                   0.7825063        35.84849       0.01234887        82.58667      0.003093278        71.08746      0.002685486       -172.8644
                       0.0129472        68.50669        0.7590339       -17.86291       0.01509866        -135.112      0.002593619        82.38253
                     0.002594883        82.39713       0.01509895       -135.1126        0.7589225        -17.8694       0.01294515        68.49921
                     0.002685341       -172.8673      0.003093684        71.04928       0.01234764        82.59415        0.7826792        35.85969
20.525                 0.7790233        32.26518       0.01222272         78.9672      0.002983911        70.64868      0.002778665        179.8372
                      0.01261017        64.78447        0.7575627       -21.26338       0.01560842       -137.7332      0.002715654        81.53844
                     0.002716946        81.54734       0.01560868       -137.7339        0.7574509       -21.26978       0.01260797          64.777
                     0.002778509        179.8345      0.002983961        70.60899       0.01222176        78.97437        0.7791948        32.27643
20.55                  0.7755765        28.67158       0.01207473        75.37038      0.002903024         70.8756      0.002867748        172.6591
                      0.01225217        61.19834        0.7563085        -24.6924       0.01616323       -140.6099      0.002849725        80.24855
                        0.002851        80.25248       0.01616345       -140.6107         0.756196       -24.69873       0.01224982        61.19099
                     0.002867582        172.6566        0.0029027        70.83611         0.012074         75.3771        0.7757468        28.68287
20.575                 0.7721837        25.06627       0.01190529        71.81033      0.002858796        71.65072      0.002952674        165.6056
                       0.0118773        57.77081        0.7552755       -28.15115       0.01675264       -143.7364      0.002992099        78.53983
                      0.00299332         78.5396       0.01675284       -143.7371        0.7551623        -28.1574       0.01187481        57.76371
                     0.002952498        165.6032      0.002858104        71.61356       0.01190479        71.81642        0.7723527        25.07763
20.6                   0.7688623        21.44781        0.0117153        68.30234      0.002857943        72.76926      0.003033418          158.68
                      0.01149029        54.52594        0.7544666       -31.64061       0.01736648       -147.0996      0.003139362        76.45355
                     0.003140499        76.44991       0.01736663       -147.1004        0.7543526        -31.6468       0.01148766        54.51925
                     0.003033231        158.6778      0.002856914        72.73664       0.01171499         68.3076        0.7690302        21.45926
20.625                   0.76563        17.81477       0.01150617        64.86275      0.002904553        73.96222      0.003109997        151.8856
                      0.01109648        51.48899         0.753883       -35.16165       0.01799493       -150.6823      0.003288502        74.03708
                      0.00328953        74.03077       0.01799505        -150.683        0.7537681       -35.16777       0.01109374        51.48288
                     0.003109802        151.8836      0.002903245          73.936       0.01150603        64.86707        0.7657967        17.82632
20.65                  0.7625033        14.16567       0.01127987        61.50901      0.002999367        74.94766      0.003182482        145.2248
                       0.0107019        48.68561        0.7535246        -38.7149       0.01862877       -154.4641      0.003436929        71.33871
                     0.003437828        71.33034       0.01862886       -154.4648        0.7534088       -38.72096       0.01069905        48.68026
                     0.003182278         145.223      0.002997858        74.92885       0.01127986        61.51226        0.7626691        14.17734
20.675                  0.759499        10.49908       0.01103891        58.25951      0.003139827        75.48782      0.003251003        138.6995
                      0.01031318        46.14069        0.7533899       -42.30082        0.0192594        -158.424      0.003582471        68.40446
                     0.003583228         68.3946       0.01925946       -158.4247        0.7532731       -42.30682       0.01031025        46.13632
                     0.003250791        138.6978      0.003138203        75.47654         0.011039        58.26155        0.7596637        10.51088
20.7                   0.7566325        6.813547       0.01078639        55.13336      0.003320833        75.42614      0.003315747        132.3107
                     0.009937579        43.87638        0.7534764       -45.91963       0.01987883       -162.5407      0.003723355        65.27661
                     0.003723958        65.26572       0.01987886       -162.5413        0.7533584       -45.92558      0.009934595        43.87321
                     0.003315529        132.3093       0.00331918        75.42179       0.01078654        55.13408        0.7567963         6.82549
20.725                 0.7539187        3.107684         0.010526        52.14992      0.003535816         74.6929      0.003376968         126.059
                     0.009582848        41.90946        0.7537802       -49.57135       0.02047975       -166.7933      0.003858177        61.99299
                     0.003858622        61.98148       0.02047974       -166.7939         0.753661       -49.57724      0.009579836        41.90774
                     0.003376744        126.0578      0.003534208        74.69438       0.01052616        52.14924        0.7540816        3.119783
20.75                  0.7513714      -0.6198594       0.01026202        49.32824      0.003777711        73.28767      0.003434983        119.9438
                     0.009257066        40.24782        0.7542967       -53.25574       0.02105545       -171.1621      0.003985882        58.58705
                     0.003986164        58.57525       0.02105542       -171.1627        0.7541762       -53.26159      0.009254067        40.24775
                     0.003434756        119.9428       0.00377621        73.29383       0.01026214        49.32611        0.7515336      -0.6075909
20.775                 0.7490037       -4.370358        0.0099993        46.68606      0.004039632        71.25418      0.003490174        113.9636
                     0.008968376        38.88635        0.7550203       -56.97235       0.02159987       -175.6285      0.004105729        55.08796
                     0.004105849        55.07616       0.02159981       -175.6291        0.7548984       -56.97817      0.008965427        38.88811
                     0.003489943        113.9629      0.004038287        71.26385      0.009999345        46.68246         0.749165       -4.357911
20.8                    0.746827       -8.144998      0.009743243        44.23847       0.00431522        68.65794      0.003542973        108.1159
                     0.008724579        37.80296        0.7559447        -60.7205       0.02210753        179.8251      0.004217276        51.52099
                     0.004217236        51.50944       0.02210745        179.8246        0.7558215       -60.72628      0.008721725        37.80666
                     0.003542741        108.1154      0.004314069        68.67016      0.009743164        44.23346        0.7469879       -8.132365
20.825                 0.7448522       -11.94486      0.009499708        41.99619      0.004598782        65.57098      0.003593862        102.3969
                      0.00853264        36.95553        0.7570628       -64.49922       0.02257358        175.2152      0.004320352         47.9078
                     0.004320156        47.89672       0.02257347        175.2147        0.7569382       -64.50495      0.008529923        36.96119
                      0.00359363        102.3967      0.004597853        65.58495       0.00949946        41.98987        0.7450126       -11.93203
20.85                  0.7430885       -15.77089      0.009274892        39.96341      0.004885286        62.06294      0.003643357        96.80147
                     0.008398119         36.2813        0.7583668       -68.30743       0.02299374         170.557      0.004415034        44.26677
                     0.004414688        44.25634       0.02299361        170.5566        0.7582408        -68.3131      0.008395581        36.28884
                     0.003643128        96.80142      0.004884599        62.07802      0.009274433        39.95594        0.7432484       -15.75786
20.875                 0.7415441       -19.62389      0.009075147        38.13544      0.005170308        58.19688      0.003691994        91.32307
                     0.008324632        35.69969        0.7598488       -72.14372       0.02336434        165.8654      0.004501626        40.61318
                     0.004501139        40.60355       0.02336419         165.865        0.7597213        -72.1494      0.008322307        35.70888
                      0.00369177        91.32325      0.005169878        58.21258      0.009074441         38.1271        0.7417035       -19.61065
20.9                    0.740226        -23.5045      0.008906717        36.49646      0.005449956        54.02786      0.003740311         85.9538
                     0.008313449        35.11872           0.7615       -76.00656       0.02368232        161.1539      0.004580628        36.95941
                     0.004580012         36.9507       0.02368216        161.1536        0.7613712       -76.01221      0.008311363        35.12921
                     0.003740093        85.95419      0.005449793        54.04378      0.008905738        36.48759         0.740385       -23.49106
20.925                   0.73914       -27.41317      0.008775424        35.01787      0.005720801        49.60297      0.003788826        80.68427
                     0.008363332        34.44417        0.7633114       -79.89423       0.02394525         156.436      0.004652715          33.315
                     0.004651981        33.30732       0.02394508        156.4357        0.7631811       -79.89989      0.008361502        34.45558
                     0.003788616        80.68487      0.005720911        49.61883      0.008774157        35.00888        0.7392988       -27.39952
20.95                  0.7382903       -31.35018      0.008686307        33.65777      0.005979814         44.9621      0.003838018         75.5038
                     0.008470671        33.58928        0.7652736       -83.80482       0.02415135        151.7246      0.004718701        29.68676
                     0.004717862         29.6802       0.02415116        151.7243        0.7651419       -83.81044        0.0084691        33.60118
                     0.003837816        75.50459      0.005980199        44.97767      0.008684742        33.64912        0.7384488       -31.33633
20.975                 0.7376806       -35.31558       0.00864324         32.3622      0.006224319        40.13891      0.003888298        70.40046
                     0.008629872        32.48257        0.7673768       -87.73624        0.0242995        147.0322      0.004779506        26.07877
                     0.004778576        26.07339        0.0242993         147.032        0.7672437       -87.74188      0.008628554        32.49454
                     0.003888109        70.40143       0.00622498        40.15401       0.00864139        32.35436        0.7378388       -35.30152
21                     0.7373127       -39.30923      0.008648635        31.06833      0.006451957        35.16183      0.003939996        65.36136
                     0.008833917        31.07234        0.7696112       -91.68638       0.02438927        142.3714      0.004836117        22.49245
                      0.00483511        22.48827       0.02438907        142.3712        0.7694768       -91.69196      0.008832833        31.08404
                      0.00393982        65.36247       0.00645289        35.17633      0.008646521        31.06174        0.7374707       -39.29497
21.025                 0.7371878       -43.33075      0.008703228        29.70913      0.006660657        30.05501      0.003993332        60.37287
                     0.009074965        29.32743        0.7719664       -95.65285       0.02442099        137.7546      0.004889549        18.92654
                     0.004888481        18.92357       0.02442079        137.7545        0.7718306       -95.65848      0.009074095        29.33857
                      0.00399317         60.3741      0.006661858        30.06879      0.008700886        29.70416        0.7373455       -43.31629
21.05                  0.7373054       -47.37956      0.008806027        28.21903      0.006848619        24.83908      0.004048398        55.42095
                     0.009344909        27.23512         0.774432       -99.63338       0.02439576        133.1943      0.004940798        15.37727
                     0.004939683        15.37549       0.02439554        133.1942        0.7742949         -99.639      0.009344221         27.2455
                     0.004048252        55.42227      0.006850083        24.85204      0.008803499        28.21596         0.737463       -47.36488
21.075                 0.7376643       -51.45483      0.008954421        26.53914      0.007014301        19.53184       0.00410515        50.49151
                     0.009635802        24.79739        0.7769975       -103.6255       0.02431543        128.7033      0.004990802        11.83847
                     0.004989654        11.83785       0.02431522        128.7033        0.7768591       -103.6311      0.009635268        24.80689
                     0.004105022         50.4929      0.007016018        19.54391      0.008951758        26.53812        0.7378216          -51.44
21.1                   0.7382621       -55.55555      0.009144419        24.62123      0.007156412        14.14885      0.004163392        45.57078
                     0.009940166        22.02679        0.7796522       -107.6267       0.02418273        124.2943       0.00504039        8.301857
                     0.005039222        8.302321       0.02418252        124.2943        0.7795126       -107.6324      0.009939755        22.03536
                     0.004163281        45.57222      0.007158371        14.15997      0.009141676        24.62231        0.7384191       -55.54057
21.125                 0.7390952       -59.68054      0.009370993        22.42991      0.007273901        8.703877       0.00422277        40.64565
                      0.01025118        18.94262        0.7823853       -111.6346       0.02400123        119.9804      0.005090249         4.75732
                     0.005089073        4.758782       0.02400103        119.9804        0.7822446       -111.6403       0.01025086        18.95023
                     0.004222679        40.64707       0.00727609        8.713986      0.009368225        22.43302        0.7392517       -59.66538
21.15                  0.7401588       -63.82831      0.009628429        19.94288      0.007365959         3.20933      0.004282779        35.70393
                      0.01056276        15.56786        0.7851861       -115.6466       0.02377538        115.7746      0.005140883        1.193366
                     0.005139709         1.19572       0.02377519        115.7747        0.7850443       -115.6524       0.01056251        15.57455
                     0.004282706        35.70534      0.007368365        3.218371      0.009625689        19.94787        0.7403151       -63.81297
21.175                 0.7414474       -67.99723      0.009910676        17.14974      0.007432015       -2.323434      0.004342761        30.73473
                      0.01086961        11.92693         0.788044       -119.6604       0.02351053          111.69      0.005192587       -2.402403
                     0.005191423       -2.399276       0.02351035        111.6901        0.7879012       -119.6661       0.01086939        11.93275
                     0.004342707        30.73608      0.007434622       -2.315514      0.009908013        17.15642        0.7416032        -67.9818
21.2                   0.7429543       -72.18561       0.01021163        14.04999      0.007471737       -7.883809       0.00440192        25.72849
                      0.01116719        8.044219        0.7909481       -123.6734       0.02321291        107.7391      0.005245428       -6.042767